652
 energy: -953.323988233316 gnorm: 0.000208486681 xtb: 6.7.1 (edcfbbe)
H           53.09419035328774        3.43065057916989       31.74178637110659
C           61.43263702852866        3.01352851533242       53.49037214430540
C           31.64096881545151        3.15550697912726       65.84577448002763
H           51.63915653803433        0.37789916927553       46.73907522742270
H           38.80918402812080        1.56829784822899       66.97300584907023
H           47.61263079931955        2.22087855652498       43.13416212427148
C           53.90929392809295        2.75012614943134       21.25946677472423
C           20.05068426437887        3.74389046520327       55.29473108381796
H           30.08544865061577       -0.31278128052656       45.08466860294866
C           47.30733678699900        1.89921496866664       49.52502062818629
H           50.04286102767806        1.79160913951330       49.42047031671448
H           47.18638926882920        0.48122185821913       66.82606157899575
C           34.16664565938632        1.23703724441553       19.92541979292114
H           61.62496176415611        2.00875711031989       58.09735371904418
C           56.10931561116504        1.91462586966694       24.90245579738353
C           56.77509866181823        2.75791654376133       27.13932557674749
C           54.07302951726039        1.07618656225176       47.14733483137542
C           60.00089801073415        3.25850693857894       32.88751057836819
C           19.18440261390607        3.84124561142877       54.11479200716998
C           49.64213264995993        2.04887323878458       65.09976883703389
H           40.94373971959597        1.33362982397005       36.52330958567065
C           53.90797895576185        3.57885983975191       24.83296435634994
C           49.53826803901787        2.58330693624679       48.86033228399383
H           53.35439253561806        1.60217814713811       34.17692545599397
H           37.98824722268368        1.26313590785046       25.21630861501736
H           32.00852880418465        0.05270311506794       20.06498647206545
H           21.42752859873752        3.05931734894194       38.94156098774481
H           26.50722667107126        2.14322594865916       49.00354638896656
C           59.10240686110789        3.27269937475828       31.72525715192315
H           51.11843406666929        2.73429905425594       19.36069005240076
C           37.72639952948266        1.67761292984979       30.28143167132483
C           44.12018566906590        2.13673810869017       55.15940781793668
H           47.21364123419134        1.55023491934822       23.60164236880985
C           24.31779424183429        3.59237821575227       61.12266885495805
H           37.22621626908931        2.52679996274706       36.36691363521507
C           43.05328795937383        2.13047666013191       56.25315955324619
H           46.88300098198180        3.65936453970806       63.97845693669842
C           46.87501326977449        2.81704605389899       21.90480565533492
H           42.63298524844694        2.62239574894111       46.33616785328665
C           56.19735430212785        1.40923889392944       48.41487086114923
H           53.95203914158770        0.06736346092181       47.54958413162523
C           38.84936576340002        2.69821080215778       21.49109646940706
H           42.06773286712782        1.99404091572226       39.36285742642093
C           38.80265095562619        2.62666945092006       65.12320002543116
H           51.38172018356083        1.50512949226791       35.69107626719468
C           23.27692917110748        2.09678873295578       38.36666302336177
C           64.20014292811531        2.57881233988271       48.32079181233995
C           18.29730203030635        1.12403789651382       28.59070308607317
C           53.29477027472605        1.18111586986015       45.83571704726637
C           15.21728950748654        2.86994597970246       38.59010102615188
H           25.71623293616403        2.36512051326316       41.77405702591401
N           59.10733318790167        1.92629460966334       26.48123405649393
C           25.39823294002258        1.88414068091058       39.69244187108276
C           33.98115679657133        2.45267209605598       63.12286354207468
C           56.43531602387463        3.10131187643138       28.40596514258081
C           26.06425289329999        1.62856907728766       41.04340212345495
C           65.94785207115835        1.88992019205099       46.80708613857248
C           29.00357043756910       -0.18977020152986       51.91161024729937
C           14.15494431064033        3.27630649413141       43.57514231657425
H           46.89336153447522        4.10528780431034       20.18897139916183
H           61.06491094133754        0.89311205116384       59.36738834474215
H           27.93602690520288        1.62125944223109       53.71791030055386
C           63.72710123279702        2.09642617178767       40.89816467719378
C           33.76051968024812        1.76130141104632       21.17478759154008
C           40.30303978181453        2.81889974690182       21.32897070405247
C           48.86737562898211        3.52470286071782       20.74922482347629
C           40.26589359571087        2.63171721884226       65.01399239579202
C           47.55589459180413       -0.01272745119674       44.37881405378043
C           25.37117308490058        1.78876714403024       54.88933745061372
C           22.82200731035316        2.03120226921103       62.15642615357971
C           31.66562762506049        2.61156242615533       22.24328251736009
C           33.63501658971573        2.50608907689600       64.49133439359491
C           13.46723168667723        2.26635262505276       40.13807778553051
C           27.41088259265816        2.43543444653229       66.68660260202208
H           62.90640554509238        0.57904090459066       32.23265555113394
C           24.83675412532290        2.69641593508981       63.30520899386904
C           47.61462026594324       -1.17988403997645       43.35361579514186
C           19.96130820214212        2.86534446715679       32.04681370318325
C           23.93642690079565        2.29861328182414       54.82502949926732
H           41.63650930645626        1.83286725703334       17.53219697363144
H           56.05210533022916        0.43452838075416       48.88605294192114
H           46.52993212133963        2.55497880719010       51.38220316731768
N           27.49812428210717        1.78900460059783       40.90511025464929
H           62.83285355132558        4.02880303485250       47.52150035781618
C           43.25931589551210        2.27713469826094       60.13799715489935
N           34.42865690353083        0.76481586179270       18.91143466940239
H           15.15530049567313        3.60342750450806       55.04785888902299
C           65.43383711880821        2.70636150333977       45.80154568985528
C           57.68786271595926        1.74588682352069       48.41974807439276
C           60.07347979556602        2.70925206586659       53.50115058841980
C           19.21762696431719        2.91291641465618       33.30957838444331
H           25.71835898651824        1.11053644096876       38.98965574067394
H           21.72928668517528        3.20997976208278       36.45950634188725
H           47.79098637635689        2.29460603579734       40.88933020614318
C           65.22024755300107        3.57750893658403       39.75775482111732
C           29.96633773155124        1.80605440976705       64.10914066414934
C           31.62168347918579        0.45214110172174       42.96218215522332
H           51.44404840635365        1.86194100526537       67.07915084394155
H           39.63767094885343       -0.79801792188683       36.62178550710897
H           24.12641543398818        2.58221724615515       65.91313156508677
C           53.33340094852219        2.78743767712113       22.52894695903566
C           47.67659679091090        2.10910651686771       22.80106676561702
C           59.29545974101772        2.69984488016386       54.74439750834954
H           33.67770386149894        0.38177109964979       38.42371080619391
H           13.32738003747470        4.88888418223390       47.07358324248296
H           17.31535289373755        3.38822682450376       32.43392447285984
H           61.93388274740878        3.28518595703829       54.40637518663202
H           48.94460432862167        3.12076459711542       34.81599457118699
N           45.13734695514238        1.27868828593300       50.56208800781394
H           57.94555705745888        0.97462624325463       50.41798834069470
C           27.25153098763757        1.46694945125422       20.67873247016752
H           32.24131730327289        3.36035194184138       22.76742303500889
C           46.85107518858705        2.06666446283828       65.41923007149509
H           21.52596236502498        1.44030147748344       36.35377610278050
C           61.27793925152881        2.66016492381601       32.82094038576552
C           62.23629072627619        2.68511870970249       49.83574845221014
H           42.02141895692800        1.30410925524469       58.67106107189586
H           25.13386155004441        0.56846972779803       53.14104059731534
N           43.50717119756158        2.03926742738789       53.84499721063690
H           32.15989153030935        0.46944617186504       43.91387252573849
C           65.34432740259398        1.82801959107361       48.04570766735101
H           47.51614683642053       -0.43282122829091       45.38809175566521
H           25.77917369448748        0.62806705442354       41.41353004655534
H           11.35797673552772        3.27315889766279       41.68310447380952
C           42.61698872040917        2.21601252304982       58.75403514486767
C           21.35106955390974        3.26770116860808       55.14115217984931
C           57.74617304894013        3.00672437797952       31.90965972780100
C           46.12222212797239        2.32299136995490       50.39801774383133
H           44.36325617031513        1.40594910463865       57.79544440064436
C           53.11242772381439        2.74631732893570       20.12882430982961
C           30.15930435473616        0.75187828370048       20.85909147426190
C           27.10135868686953        2.59634936431115       64.31542321665533
H           10.33250848241915        3.44585537387918       43.91313789401967
H           58.64269316467026        4.31530409997020       34.14605301107770
H           53.62083723349286        1.77039166168144       47.85838121623908
H           40.60640433830330        2.96668503817713       67.10744078216607
H           31.31124348419153       -0.58485914342278       42.76602126259489
H           50.98579280448926        3.28211146662706       33.24050909601480
H           25.77538289795501        1.07669129592992       27.71767605023228
H           61.61158250167522        2.79168234240166       48.95894984545632
N           51.87618164775732        1.16783752801639       46.14895337212464
N           44.39108617226817        1.09290880120855       40.37602571138475
H           24.19355230088490        1.58892258968029       22.10325529093707
H           27.43943087281071        1.14306383905860       51.31381782544526
H           39.01520098852012        2.38751411984800       23.58564292148193
H           53.06015725837646        4.24827066993948       24.80347038881533
C           49.41139372806669        2.26162380580588       35.30705999238660
C           51.13493647244366        2.80738105512026       21.50474191624917
C           37.26915510794133        2.08741525131693       25.32010653450705
C           62.84900788356480        2.16010477040735       39.83754671363920
C           65.81232993460613        2.79323916301086       42.05759984287866
H           66.13152592866852        4.15706837445042       39.73118016648646
H           55.32527895265601        3.53232368334339       62.94414008872952
H           23.69210007052997        3.00904892042663       37.93148606453831
H           37.65950432057259        1.83458053528546       37.93558392527792
H           45.30439527054077        1.86510875011477       45.33522553875735
H           57.62208851260607        2.72717771798740       50.33324918531839
H           38.80402296752688       -0.22298685560275       38.06696805799171
C           44.33706177410808        1.30090519624578       51.70427956027616
C           15.58874767177250        2.58646974953387       46.08586609946585
C           40.94631591414232        2.25617937011166       20.22784409928879
C           38.32416353458054        2.47578407309836       22.76362451164780
C           40.88562608576683        2.48072771422172       63.77278071333524
C           38.18697020957804        2.03166263805524       66.22435596319987
C           57.01110672238218        2.51731590691363       58.32984732713484
H           13.64154773509721        1.47674912023123       38.16586717875754
H           54.95756189924482        1.99075475013074       64.66610347378011
H           41.94127927428843        3.06477948917138       58.62742524887189
C           53.88151477611445        2.02675428791653       64.74981996291652
N           29.22011523781837       -0.73083929898181       50.57538111143057
H           15.64530894460293        3.87373883353062       50.85386772113506
C           17.84945233389820        3.17024478168895       33.34569633234754
H           44.94699777945124        2.81558073199071       20.02440051068909
N           38.14527727864890        1.50848551585953       32.66748432769698
O           61.62534808353273        2.09955202065828       31.63309042665684
C           14.06450905091654        2.14594693334199       38.90100271710442
H           35.55753728543549        0.70136444352079       36.03230389140968
H           45.68048723334015        3.25182997401429       49.99763072385137
C           25.81038009230233        1.35158000916579       53.49254583178722
C           54.72845284966979        3.57142644690928       25.94377953633516
C           11.98199672931462        3.29013019477924       42.56438539912265
H           21.69146691201103        3.87846596880374       32.81412492868038
H           27.26565559162194        3.57497709685445       48.78158782694680
C           27.24222095134921        0.82723970366059       53.43657380110593
H           61.07986725468230        0.36125630115544       57.66889029640611
C           19.39187430224462        2.28704013108815       30.91343490039525
C           51.41337622827077        2.41056051662264       33.74028337883465
C           32.30944301283575        1.70726203160482       21.39825343899976
C           45.41443694572883        2.82266113924047       22.06642627528358
C           14.92534501208336        2.36971789072566       36.24418615529328
H           49.32771996166157        4.10533693222147       19.96312597263932
H           29.70691882413633        0.63516479298751       52.04934506945891
H           35.33124426998325        2.19647492392088       38.52732869220936
H           47.94552867244140        3.79540394916065       49.18898486656441
C           45.39741177262037        2.08573166756798       65.63138446141829
H           15.55981847453592        4.52157105046469       41.52506929801113
C           30.29320310518593        2.58630677950846       22.38883049181709
C           59.44051599474184        2.41654482619720       52.29401621357838
C           19.89246714571795        2.69432007873549       34.50970708532682
C           37.10995089307548        1.41554157290327       31.65458703605049
H           26.88365083471344       -0.47218879069219       51.76313843759620
H           45.16796859310758        4.20965064693527       45.68664770846288
H           63.06254914004217        2.18565624684313       33.90815890951334
C           54.78567572463258        2.33825427438103       57.36641461660322
C           25.26964639861652        1.62629830241167       22.02028742626601
H           55.39254910360255        3.27998909530164       28.63147705647621
N           34.97372675845909        1.88172921704189       37.62857593688296
C           30.27810336885207        3.15181828553775       66.06275833660689
H           67.64889553751679        2.78070921458107       40.94796510771624
H           60.06551378238011        4.25881926934058       36.12914122514394
C           59.84928902991366        2.20462409592784       55.92388649485135
C           34.65655112371583        2.22458411098546       22.07947298649008
H           15.79988891161787        1.90485860376686       45.27517945179333
H           53.89495041122044        1.82634649398287       66.87659422485693
C           47.49332626230254        3.52690697815500       20.87662889240181
C           17.09807875038742        3.52758214657782       49.38778457007252
H           56.42520756727174        3.65612218504957       60.76532868191273
H           31.73389448085501        1.28538717415707       63.03436669632334
C           47.47371457514245        2.94239426031564       64.52957187820812
C           34.56065070477178        2.51160708691663       65.47839267648142
N           19.79231987296818        2.45542212259792       60.59566784509279
H           18.13116053095660        0.73942405625320       27.58556913640304
H           54.98483821645564        2.74282970449294       21.16149841652667
C           22.20173841667076        3.10841814641809       56.22527749071516
H           49.45494342998734        1.51823760812293       37.20246683134636
H           34.30577578993074        2.46853784748633       23.07324839984144
H           38.35086245889672        3.01295888690570       19.42603303274378
H           45.14599677111110        1.42551435582105       39.77334928578196
H           49.61412404722365        0.45958047040723       66.53802327215799
N           31.42245592953385        1.71783611230631       38.73450327962482
N           19.49934694103803        2.93533458143410       48.72414665079746
N           30.48909625307971        1.35249061400569       43.07651538023620
C           36.89055256339353        0.84910672639208       68.43106722040557
C           62.08734056282034        2.64673443808728       33.94552680068818
C           17.02033389528644        3.49596194915943       53.08604940001187
N           44.69345050538934        2.57957069891121       24.51157048959211
H           26.02381443320391        2.57826421466469       55.26400922445109
N           38.25374444787989        0.70417993600524       36.29931802183475
H           57.55717058634356        3.61225989337284       53.87542021393067
H           56.23798411943358        3.52043614376563       55.92414148864790
H           16.61479242676911        4.32300341627241       39.33161959855865
H           38.48438815355107        0.91415220822165       30.08669815600586
C           53.28303285061589        1.92056337826871       65.99122328520271
N           48.80822232614720        2.30756213588561       40.85185328892992
C           56.85655008035751        2.98605539584214       30.84476641570865
C           55.29191032767765        1.92938215674746       23.79276300656459
C           23.51510443957029        2.41914285765772       28.28567504924287
H           44.67845036662467        3.07707334585878       55.19401333601952
C           50.46613156442176        3.79065841818200       48.76758157668939
H           17.30739097153755        1.99232924076295       47.19888257757216
H           63.48809578714952        1.47069192319656       41.74514944921305
H           65.75257250622607        1.18110145447865       48.80866295968253
C           51.71723110996101        2.16590622328352       63.72598020614427
N           48.32381406981077        2.93282257918858       49.57338799491119
C           49.32379265037777        1.57799654590509       41.99476844578573
O           19.84672972686499        2.50150297362081       36.92188060809730
H           18.39241424773824        1.88917269512100       30.98722672590316
C           36.96069683114658        2.33272729596518       22.97525570243776
H           47.32997206780145        1.26184057983165       38.98841497515871
C           36.80727495337828        2.00055318738166       66.34453486246541
H           22.96534485026246        3.69233825561619       30.74118228898482
H           25.71937185700291        2.19561980776387       52.80546656674782
C           22.60445797671508        3.22622842302922       58.66340222989323
H           42.92225918109140        1.21275094317689       53.77593671300438
H           51.49442317228153        2.86092190443872       23.61490111054435
C           37.76282803019053        1.42779915899047       34.01590635447376
C           14.45545256312398        3.39673278572552       46.02748048316548
H           49.14970916731907        2.83578111257144       43.76754263620280
H           36.02648257034560        3.64459092163816       63.48676684493083
C           30.10194918011067        1.72795843118704       44.41358720619090
C           42.22503422028107        2.28634132441284       61.26096704170780
H           49.64652488941531        1.52308530291201       23.35291622070818
C           21.25508824878915        3.37761353357145       31.96404454108835
C           43.60312656185062        1.78384816800403       48.61346324642942
C           60.82823848858995        2.93623190413246       38.01202158927052
C           13.99873078055206        3.11319849498534       41.10857003483856
C           44.37173195086783        2.13901960430897       52.74268836274840
C           57.98591321243568        3.17748629731829       54.76476583811228
H           45.26284108506189        0.41451184967710       48.67427417047528
H           28.63068435484265       -1.54570728831296       50.43391696756434
C           42.32747705076817        2.29468812721465       20.11032755828140
H           35.73695141875635        2.70267856609758       26.69681545295157
C           42.26738262079557        2.45363111689634       63.65751680803645
H           36.35590488540528        2.17573193111508       31.87820279181038
O           42.93561119263106        2.31106237319432       62.48442740015900
H           55.30575253315281        3.50629882813316       32.88983104368575
N           47.34357441795947        4.33840458357337       39.33518681380107
C           53.48580012186432        2.55033013878861       32.25391086579562
H           43.03432377029192        2.88777252030158       66.93054644554633
H           42.74918804145500        1.25302778514798       48.18230917727439
H           57.40669933352707        2.78160390768938       32.90775526258786
N           29.50246253144610        0.90382121386169       46.65364006156750
H           68.07885179637687        2.73291084405464       45.19365191232370
C           20.10417996592900        2.18401567530013       29.72925780647022
H           45.86461210621800       -0.91532085486333       42.34439850555793
H           53.27287168729023        3.36073578289609       34.23185358234820
H           58.39414402844114        2.16049429927087       52.32117770865276
H           57.86700917986344        2.67890755950862       47.88308806723384
H           53.56826076632733        2.71876992629988       19.14992692930793
C           18.43717266165012        3.21790465161742       49.05840714831940
C           36.70931571194853        1.66838244721075       29.14114605399033
C           43.67017618185952        2.23721917962578       57.64646132297302
H           28.06107351203049        2.34242989803629       67.54396435144736
C           53.10305181134297        2.15052183125747       63.60031857413630
H           43.06603797994435        0.79159403622296       17.32294205923088
C           60.13215819433323        2.41924114702947       51.09193162088100
C           19.23090095860451        2.71127915909708       35.72811335170599
H           37.94798064466089        2.83611634206938       27.83470735591343
C           32.18801972943360        2.48801950607209       64.75071400952613
H           35.91416196037522        0.95324759885500       26.54272214180572
H           23.54367346449395        2.70669549445739       40.41712833210165
H           42.71360186724466       -0.07893068439820       40.58653316630088
H           60.86020501784652        1.83028810130771       55.89881298047611
C           23.62433776703424        2.88027160181879       25.83727582942741
C           36.46306285222345        1.89416806050273       26.60093931134149
C           63.56654503167467        2.51086788394320       49.64502731295875
C           15.82916739285064        2.75518170285417       37.25941531725748
N           51.77324950909286        3.37738838986999       48.28869485858618
C           59.11015725023662        2.15503052904264       57.09514704073806
C           68.00603178296036        2.76204566949647       43.05657619679116
C           29.41447302214258        2.48155055790451       65.19730249702695
C           17.15053321475478        2.95177458957476       37.02972442909532
H           42.47571946674736        1.20523596004553       56.18349414891664
C           39.26158260370526        0.09676569262244       37.12750520602264
C           50.93638594264334        1.32337831992046       45.11186840082858
H           40.08955918945622        1.91520796123199       37.96460504070007
C           29.47788497141782        0.58263401810491       45.23752076003844
C           23.65839327178090        1.95363101689274       63.25003857474846
C           28.49805201592726        1.95751089925800       48.62057941695484
O           59.58416632596896        1.66765006594596       58.27387774387819
N           14.13838454359438        2.02625175983148       35.48049769072099
C           21.73435860102927        3.41759516014316       57.52503541723222
H           23.29589335424541        1.51536373752099       54.39617202429942
N           44.31900613547334        2.39177356267309       47.50651728081509
H           61.92557620255807        1.59988695759836       39.86989020932620
H           35.99752215902780        0.00813254589412       37.60375742525397
H           29.41013039229813        2.56835933635755       44.34573435465598
C           27.95943236456541        2.50345348593589       65.40689992625954
C           48.80263192756790        4.31165275189308       39.43884558735365
H           29.19069704987736       -0.93106400551374       52.70793605290925
H           41.73935633527181        0.26660630407022       18.38712986328653
C           61.65762062211022        3.18666044914131       35.16270251340987
C           17.55619872403775        3.84397987091137       51.82378334266873
H           56.05682093027310        0.64517612335004       46.39742461380216
C           44.49840265404149        0.77582349861310       49.36523655697576
H           29.57917062269545        0.01043857740540       20.32969491729634
C           55.00500917100715        2.38530018224351       59.77729516372488
C           58.16420819154664        1.89646014358729       49.86128653944284
O           23.47084677883884        2.63468720582027       56.11898883408608
H           23.58190961071618        1.26278864266313       37.72981602659953
H           64.58746817435788        4.25764938773191       37.83776563460389
C           28.28908589776711        1.75712758268877       42.06436032785052
C           57.33894726549259        3.19481169527248       29.53078813830249
H           53.58838858495179        0.36906337523084       45.14974046017456
C           51.94753501561961        2.82429271452793       22.63489583638058
C           21.25216850741529        2.33695477474746       36.92661599144284
C           25.87286412070470        1.45449375812663       20.78845709663509
H           20.94775779071396        2.48069770662974       34.46450886877794
N           48.65058415598001        0.92113590315847       44.33696839955805
N           27.36232127521589        2.65512978328927       49.20108433823876
N           25.18089646184707        2.32162583972915       30.22676810576919
H           19.29470984384020        4.57930982576382       50.82052522655206
C           25.40531408615269        1.98658347409233       24.47517324719962
C           55.00809114501226        2.63118753797429       32.29529673928717
H           55.66738348683898        2.14661634003179       49.02259901237197
C           36.07731483032805        2.38776940646107       21.87022879465436
H           63.90436012313801        4.13279617535390       45.32919118350546
C           35.99666738588897        2.56246533346750       65.32978116958152
H           51.10413795305485        2.26484741176367       62.84190985647216
H           17.45253152057789        3.17826876514860       55.16238885978768
H           43.09554734521041        1.50931577200179       37.99501709636930
H           21.56111180690641        2.39094108679129       27.54536087577426
H           38.23351751036935        2.64370235505124       30.31150756483490
O           36.14570835241976        1.42600258329655       67.38558535004843
H           25.62279857831861        2.40735503194468       67.85714367614835
C           44.97850974002862        2.70378871394395       23.40581025396019
C           62.54227592279425        3.09827226599721       36.30666663111232
H           37.82681959833656        3.03243962568248       25.38171531072000
C           16.70468226252169        3.77684489046494       50.65854153267369
C           14.18941807530320        4.23845255471712       47.10616141025086
C           44.99512677135186        1.60731769270305       66.89911269897416
H           53.18509101663857        1.66897026324027       31.68594590677941
C           16.43492273662668        2.62914022071001       47.17291028207050