652
 energy: -953.305473949851 gnorm: 0.000131265185 xtb: 6.7.1 (edcfbbe)
H           53.19169654740985        3.30868141905204       31.76821882539818
C           61.49593570439912        3.11673692831193       53.51355538446273
C           31.71092740180316        3.03826965376368       65.86909379086315
H           51.53414143837126        0.81971675283175       46.79166757506160
H           38.87179425357158        1.42925902013680       67.00519295542156
H           47.65782522566646        3.04494511951270       43.14399725952141
C           53.98708461998323        2.57681218574716       21.28936845787940
C           20.13986974345024        3.68843439559754       55.30417288259936
H           30.23694901568038       -0.00844279955632       45.09687511882515
C           47.04509730897572        1.76011335028643       49.84460920319712
H           49.59997577364808        2.62310602628472       50.02440142903187
H           47.27727982761090        0.37120166747402       66.85213220660140
C           34.21803528311337        1.10067162390470       19.86792290001060
H           61.70678116862386        2.04440814772102       58.10431298023792
C           56.19864795671207        1.77026387975060       24.93047923797516
C           56.86853554447873        2.62860456464383       27.16031269950305
C           53.98547766323922        1.60652076576312       47.26280910386689
C           60.09634317034843        3.16402121717582       32.90496644019744
C           19.27864492552053        3.78257522622696       54.12019380359383
C           49.71267056793205        1.96477660885377       65.11999841739072
H           40.71206794566173        1.63513986523512       36.29762740725948
C           53.99307230329574        3.42888337230736       24.85734442133979
C           49.11169249214582        2.76126362492934       49.05661772706848
H           53.44407926560068        1.45889271482821       34.18821382534662
H           38.00889975246441        1.06845380816382       25.20149849620062
H           32.06113425123328       -0.10011737118781       20.04603150391874
H           21.44109470100916        3.18153696791762       38.95727838325577
H           26.58851441415080        2.24580808533026       49.06875485263566
C           59.19764164247371        3.16885590380195       31.74286832569282
H           51.19222454263549        2.54643116111799       19.39682547289963
C           37.60786560491881        1.50064914733993       30.26863366909105
C           44.14928967605688        1.60531118119333       55.17478711897087
H           47.29350918097084        1.38501895124308       23.64522502205244
C           24.39409733017811        3.53967417139513       61.14635067164455
H           36.93101337900163        2.81039639306511       36.19961887280283
C           43.10042685466295        1.70538011872634       56.28188269524689
H           46.93143564721995        3.52885926638341       63.98703542411075
C           46.95382675952215        2.64004147459157       21.93990881116656
H           41.83944813128820        0.66981386942490       46.28258362931388
C           56.14790616935009        1.82422345987003       48.49148590552041
H           53.79934555648127        0.64289700328688       47.74380369212170
C           38.92869794321315        2.50609663779419       21.47496590157191
H           41.90492843176052        3.27841423116056       38.32515928543479
C           38.86727943562536        2.44820051946645       65.13339822277659
H           51.45868673771065        1.36325806258998       35.70054608197644
C           23.31051710691273        2.24124836154531       38.41106755523339
C           64.23751514979058        2.62870269945289       48.33913052944467
C           18.39019936644305        1.05581528641703       28.61665888264512
C           53.20827805421276        1.65793408996301       45.94725232206660
C           15.25459157935416        2.91839627461005       38.58733706571084
H           25.73932450121373        2.61796339739458       41.81824651814298
N           59.20315411518924        1.80662908503507       26.49882138800359
C           25.43082238256867        2.09835605522498       39.74406239812809
C           34.03534741305302        2.26789355249781       63.14888043786512
C           56.52942207999201        2.97491795628005       28.42627537655363
C           26.10234943508755        1.87811415736535       41.09829929752463
C           65.98590004603858        1.90496347508524       46.84128535108762
C           29.18411215159406       -0.03348237378208       51.93138174383648
C           14.22178416701457        3.30048231495038       43.58072149341235
H           46.97085103428769        3.91901559627420       20.21710498861322
H           61.14604584348029        0.90816327854796       59.35568743519195
H           28.05953186166187        1.72026608333428       53.75648608505120
C           63.81237461286830        2.06576170364571       40.92787553672576
C           33.82697346213097        1.61216742958642       21.12682690743872
C           40.38387462850559        2.62332275285568       21.32565496645650
C           48.94550527575424        3.34550309754067       20.78207265501125
C           40.33071223326560        2.44889723969868       65.02351466854311
C           47.28239725204882        1.06800025617844       44.70444075918952
C           25.48841433804520        1.80906641819204       54.91961517004877
C           22.88271787229215        1.99761489567816       62.18552036069143
C           31.74662480383620        2.46960213881852       22.21614730571253
C           33.69467702954140        2.34974140021756       64.51740968369337
C           13.51009380989921        2.31380949494948       40.14156626248059
C           27.46963485351110        2.37929307026216       66.71990947729277
H           63.00746153314526        0.48643725011365       32.26512617353072
C           24.90176076275259        2.64985438538415       63.33428947318505
C           47.11399791127952       -0.19409927680152       43.81143434609238
C           20.03163224041982        2.84015364992094       32.06157443389572
C           24.04324519981923        2.28796437222935       54.85202311660768
H           41.74748589712593        1.63541221829003       17.53983670856028
H           55.93980371097849        0.87750399773403       48.99549837598454
H           45.41993229538783        2.82666525769142       50.76372175161345
N           27.53207682770053        2.06802050505879       40.95369968833076
H           62.90115319332080        4.09804153670493       47.52220417400110
C           43.32878637783813        1.93906557694496       60.16048057306110
N           34.46710395543180        0.64206615090220       18.84445215716120
H           15.24849565686466        3.53010887034263       55.04264810966092
C           65.49315708587592        2.72519581817392       45.82834508907122
C           57.65899704700093        2.05071029618731       48.46829519888347
C           60.13080651875521        2.84086958320075       53.53149606608493
C           19.27808543727695        2.90524351840449       33.31776014138365
H           25.76778782284449        1.32074732147233       39.05358062287392
H           21.75911406621764        3.28130268137872       36.47320152095130
H           47.86879448344436        2.78488694603082       40.87716637889488
C           65.31408409880790        3.52907349372346       39.77560647136277
C           30.01669081020875        1.69038871299031       64.15058197892046
C           31.70615138831062        0.83846519715179       42.96349471163038
H           51.51215610560016        1.80303843711422       67.10343753529524
H           39.43574194039355       -0.34684507030453       36.94396158375599
H           24.18785950600925        2.56277530769609       65.94241575898337
C           53.41397403076222        2.62221123603425       22.55983179553226
C           47.75605725597599        1.93986249132125       22.84160817948947
C           59.36210094947615        2.82105455502351       54.78042907189528
H           33.40280530637494        0.77251218588016       38.41653534268256
H           13.41194435452157        4.88084529696383       47.09985926788063
H           17.37915026897877        3.35587574263469       32.42160237475530
H           62.01021493352103        3.36740215924204       54.42829486103417
H           49.06660438792639        3.05386258737669       34.84379862606476
N           44.83043274782778        0.85011139259791       50.46491702610992
H           57.91225932597791        1.24118027586127       50.45041272457873
C           27.32001724485592        1.31111960338994       20.71141665832693
H           32.32966013003517        3.22154565811726       22.72753679750872
C           46.92137965208388        1.94412966998228       65.43657937435566
H           21.57936755934675        1.50713173729881       36.40689576247763
C           61.37446350559823        2.56773789470021       32.84171626110493
C           62.27217052687801        2.79457582941556       49.85210968559918
H           42.04718033292767        0.97463417305773       58.72612471096115
H           25.28939291600766        0.59473553029218       53.16229609981239
N           43.50303133079009        1.57018945138566       53.87503727566594
H           32.27298289886373        0.88810069533610       43.89736822321220
C           65.37110166529716        1.85759342540235       48.07494778505875
H           47.21402961362682        0.77595649448820       45.75645461884537
H           25.83987068206732        0.87733179518824       41.48396513978207
H           11.41260100259607        3.31318532250761       41.70686271826608
C           42.68427854181047        1.86047007838217       58.77857347822093
C           21.44455894985177        3.22196107776763       55.15761151019835
C           57.84269447116454        2.89786849959457       31.92905662418966
C           45.54639843460019        2.02750345328017       50.03374428779715
H           44.37364935278696        0.92557731314402       57.82966082046949
C           53.18776782300774        2.56469184683264       20.16055998738820
C           30.22261443270840        0.60064574894621       20.86445826740643
C           27.16400727718118        2.52703530142688       64.34732328457078
H           10.40148092034146        3.46883470837398       43.94473116261595
H           58.73668144528897        4.22720231018226       34.15644412318433
H           53.58655206754523        2.38233051964141       47.91967315630990
H           40.67054697800631        2.82993981604237       67.10909649177600
H           31.43021654543855       -0.21239196636435       42.78838127608049
H           51.09446902051059        3.17529987254429       33.27053704246087
H           25.87466878397485        1.01487315033313       27.76716327047110
H           61.64959541599364        2.92575735864864       48.97719316011019
N           51.79205285845701        1.64103184687121       46.25610254279451
N           44.14515702842093        2.95171112762454       39.86167781458833
H           24.27263476658902        1.45158725004379       22.15548574203470
H           27.57742173979096        1.25337765590487       51.34636033311828
H           39.07256198780739        2.19587778057242       23.57264869462477
H           53.14368729056326        4.09623448202366       24.82616133832922
C           49.50899932419345        2.18047172518190       35.33247015121454
C           51.21342256653246        2.63422762261657       21.54029017497573
C           37.29814225376405        1.90156353641528       25.29140642134001
C           62.93735380063532        2.12117412768772       39.86441112105091
C           65.89493542262674        2.76780412062107       42.08674173298106
H           66.22789542940107        4.10447299234146       39.74521234835799
H           55.37834723118731        3.54268054678063       62.98852200091914
H           23.71024417567990        3.15240799978075       37.95936905744838
H           37.31149126332630        2.29157542367600       37.84574937842219
H           44.32853642690610       -0.15312639100252       45.07376878181037
H           57.67154350851256        3.00822453482345       50.39367275521662
H           38.64969120348507        0.52690068552639       38.26384552879687
C           44.12039293689975        0.84782093126673       51.66270147546290
C           15.67294265253630        2.59337628647971       46.07767781674602
C           41.03594814584684        2.05987170841113       20.23008820720622
C           38.39087536916561        2.28739831432349       22.74305197521466
C           40.95060922878819        2.26981091437082       63.78603369589599
C           38.25050928274073        1.87910768546467       66.24756108922966
C           57.09659907595969        2.57970116288574       58.37434741895699
H           13.67143515201654        1.53307212895225       38.16482763925331
H           55.02969885976839        1.99101289378762       64.70065983232394
H           42.04789581301841        2.73458794302078       58.62362780138758
C           53.95297903717895        2.00971678928162       64.78124865761987
N           29.41987009261102       -0.54927543948894       50.58835718194074
H           15.74446454081992        3.82298522867086       50.85703562718197
C           17.90809420059141        3.15553481270781       33.34041618100186
H           45.03500771441108        2.61938462471411       20.05410654268137
N           37.94475899502950        1.41300332199939       32.66810101741599
O           61.72215628951363        2.00004400760847       31.65725491076223
C           14.10050063081728        2.19750827018880       38.90076043190195
H           35.24814157184784        0.99529545145979       36.00808930096455
H           45.13793476917668        2.39286967445318       49.08127845229018
C           25.94319793977348        1.39359695459849       53.52123446421592
C           54.81685569282970        3.43020453046630       25.96571367477074
C           12.04233524280115        3.32300501657899       42.58418831926770
H           21.75777224740037        3.86209086288211       32.82677674016060
H           27.29123165495549        3.70919281333240       48.87149447783901
C           27.38920383634536        0.90991273298744       53.46497166667953
H           61.14658974531529        0.40980607865960       57.64699419036985
C           19.47045836595226        2.24686772290597       30.93162706675850
C           51.51164478459042        2.29363316860206       33.76148057847355
C           32.37834149062551        1.56140212999073       21.36639302033618
C           45.49285710881796        2.64162803472027       22.09774100872673
C           14.95217541437279        2.42685563445586       36.24138899999994
H           49.40536425666505        3.92248884447609       19.99301997834728
H           29.85985157260024        0.81218367783466       52.08113165743984
H           35.01289273941627        2.63571030710098       38.40881640819786
H           47.24210959402028        3.17615123832331       48.40532186814062
C           45.46748304500633        1.94611070766983       65.64825924699356
H           15.61685101332329        4.55582109846201       41.52803524346680
C           30.37652086851914        2.44436789507914       22.38166013265474
C           59.48280776529404        2.58144414185290       52.32487367321238
C           19.94457808808238        2.71015700717156       34.52663493404857
C           36.93804413932367        1.31327808363561       31.62937976859465
H           27.07459493085902       -0.38388129852654       51.77828534853570
H           44.11137341738896        2.24834242547410       44.97066557229073
H           63.16012662016072        2.10309186220953       33.93152956720779
C           54.88148972343876        2.36813119104645       57.40069396449212
C           25.34816014489892        1.48730878562965       22.06500380024916
H           55.48617075522895        3.14973368762873       28.65261245119392
N           34.65211807155304        2.26064450909662       37.53459826645827
C           30.34832783095361        3.05452514654480       66.08785608799643
H           67.73690603123093        2.72756762212997       40.98697902352593
H           60.16108116609173        4.18801337652842       36.13890529738764
C           59.91954198543852        2.29732943034835       55.94600575284999
C           34.72975735371539        2.06071029175936       22.03174117076221
H           15.88196267714149        1.92061580178517       45.25908200832524
H           53.96356803681414        1.80529665084189       66.90763636855705
C           47.57146135063980        3.34574985043286       20.90845912402634
C           17.19467107418578        3.50177267173587       49.38375850754214
H           56.48459064892020        3.69432223262578       60.81468967562675
H           31.77575137781646        1.13336432412386       63.08050358095727
C           47.53214525645296        2.82360605850966       64.54248771800960
C           34.62477922556575        2.36479653337409       65.50034985606398
N           19.86257008998524        2.41860720331341       60.61516163639931
H           18.23016767653269        0.65936962693871       27.61513161696676
H           55.06240078163691        2.56975016488648       21.18903738477794
C           22.29076055609962        3.06883165718131       56.24620610391554
H           49.51759288497566        1.42423714508876       37.22546108597233
H           34.38142208863567        2.29826518984211       23.02795723490933
H           38.45218960676220        2.81719879932234       19.40438599226377
H           43.90918387187269        3.88379144368597       39.53167806536699
H           49.70541606460858        0.38157802962199       66.56541074301813
N           31.14752507729192        2.06052218709562       38.77454558897018
N           19.59603203123368        2.93089878469348       48.70240832863345
N           30.54532857179575        1.69748605174569       43.10427087138059
C           36.95268101336640        0.74870797560060       68.48049143725120
C           62.18428100557476        2.56304906528053       33.96602828272233
C           17.11800312770746        3.43566861309357       53.08413180772111
N           44.76656371674761        2.41312980153349       24.54256108148696
H           26.12153427341631        2.61000017171469       55.30343994116948
N           37.95229201448218        0.97653653941450       36.36880307476662
H           57.62676349057018        3.76897442248466       53.94340411114224
H           56.31922935493067        3.64222419001996       55.99801747524351
H           16.65986939506142        4.36410724027762       39.32856815473259
H           38.33205460902479        0.69545157229178       30.11951974161145
C           53.35275525922685        1.89149571499975       66.02068289481164
N           48.87622022034987        2.64596747546958       40.88103907103876
C           56.95291112035428        2.86963083779565       30.86455776977668
C           55.37774685117382        1.77605855281407       23.82331178002651
C           23.60863958028265        2.35632068682416       28.32010593887487
H           44.79690757157246        2.48668793984125       55.19789473724624
C           49.69020714524758        4.00118041070776       48.37965911771681
H           17.39805339366755        1.99130085953352       47.17641625374012
H           63.56914180527560        1.45002820938175       41.78096657065944
H           65.76275939098757        1.20642936541265       48.84291106977284
C           51.78966028530428        2.11616370841971       63.75142978306255
N           47.68962628954380        2.93170229222566       49.28598402763679
C           49.24244714533429        1.99845129049476       42.12549505629792
O           19.88341982943870        2.55934665668674       36.94083460413819
H           18.47057898048674        1.84972015632727       31.00341036613206
C           37.02485006404068        2.15259743417564       22.94037715355340
H           44.97282079198885        2.61231472325036       39.33980543678332
C           36.87081668520796        1.85685761289183       66.37050678215056
H           23.04573362836925        3.64779586057214       30.76604383349353
H           25.83088115338842        2.23969406728430       52.83982046103461
C           22.67938070395126        3.18275562333144       58.68646606833110
H           42.83468689325672        0.80886381905553       53.81602083268642
H           51.57716035324574        2.70163228258471       23.64928619323302
C           37.53045592018796        1.47811118859537       34.00580584982643
C           14.53749176866367        3.40156269617221       46.03281034165447
H           49.27606793773274        3.51876415866415       43.69002050850756
H           36.09305773790112        3.44385984766074       63.47999832130620
C           30.16233009471554        2.03935777173857       44.45168668072725
C           42.29349276168012        2.00571929165756       61.28070611853886
H           49.72691739439430        1.36146023321728       23.39859659031897
C           21.32656584545468        3.35022443544416       31.98061796363153
C           43.21077132463943        0.56877426459716       48.55167011990521
C           60.92307651658238        2.87984865919024       38.02886536052526
C           14.04954924510204        3.15363026421598       41.11385590090984
C           44.33628340773658        1.59940607867002       52.74416509470013
C           58.05741584636513        3.31067446616766       54.81989824333812
H           45.18765025184061       -0.25801032855235       48.75261868436672
H           28.85737469181234       -1.38089179798953       50.43510997988528
C           42.41790473206368        2.09875508708846       20.12338723481281
H           35.74839596908606        2.54239253121741       26.63424079562591
C           42.33250183039643        2.24238214519259       63.67159454448326
H           36.20605069748773        2.10838134618119       31.79743850003250
O           43.00229287972912        2.06885416780063       62.50368363881593
H           55.40268907336068        3.38351039245982       32.91110863632247
N           47.76990484746421        4.65727676724547       39.06806454702834
C           53.58427051721446        2.42550235103360       32.27474581708074
H           43.09905384516829        2.75687278367806       66.93322396412221
H           42.39689823537559       -0.15702286708951       48.46137104320497
H           57.50474265705363        2.67518689987935       32.92823298516034
N           29.61693146018461        1.16240513505603       46.68588878353084
H           68.14337782011236        2.72138460552922       45.23573443662933
C           20.19056862724444        2.12880124118939       29.75364668788529
H           45.33527841989662        0.16079425661440       42.91490547766902
H           53.38164396546013        3.21749084395742       34.26086509416953
H           58.43112149306210        2.34950984610437       52.35738091827384
H           57.89622399183473        2.97043034529052       47.93141602773691
H           53.64154584570136        2.53071478941781       19.18090020214089
C           18.53375413663627        3.20306114731331       49.04495142929263
C           36.62666894950234        1.51087784151637       29.09800818822956
C           43.73354940151287        1.79614160901067       57.66877120426236
H           28.11814867681583        2.28439369820964       67.57836592386883
C           53.17592958756334        2.12393883527615       63.62976063398424
H           43.17854865001472        0.59384635320164       17.34291291271930
C           60.16483179666246        2.58334697258936       51.11712919861318
C           19.27389178063534        2.74391413510345       35.73960595204866
H           37.94498050249517        2.61871472550461       27.81807619834695
C           32.24825427362577        2.35119124107846       64.78124320026951
H           35.89363507298513        0.79048372944857       26.47744755334623
H           23.55789825027964        2.89494792776407       40.45069185537609
H           42.30106331035935        2.30483217473813       40.56327277982543
H           60.92665870867033        1.91416408113181       55.90640753258200
C           23.71679324236178        2.78828429692645       25.86644740602933
C           36.46027122452257        1.71959040072967       26.55327947407007
C           63.59618191130912        2.57694893743237       49.66035575006576
C           15.86228335104469        2.80229037820546       37.25443632242408
N           51.13594932317271        3.88821547125837       48.28733109952912
C           59.18787554170927        2.23029106737665       57.12104088992486
C           68.08295375535191        2.72946473847768       43.09773473736931
C           29.47477568111722        2.38610544752440       65.23099452305632
C           17.18536164578327        2.98796938142323       37.02432688235393
H           42.45149576351190        0.82687443848020       56.23819041819512
C           39.03962807329611        0.62779740205886       37.24828346826565
C           50.85123639597519        1.91799394832243       45.24475775324063
H           39.76957310740351        2.65737423396426       37.39915884293639
C           29.59392944030670        0.85885907505340       45.26595876179771
C           23.71638929192706        1.91821082734937       63.28109038519919
C           28.58326952747419        2.14301697666049       48.67508275500712
O           59.66457047187196        1.71517559421816       58.28686315681892
N           14.15852207721933        2.09472198767499       35.47953173879075
C           21.81384726973267        3.37146657953475       57.54424527991736
H           23.42112631052510        1.49354753678033       54.41655904726964
N           43.67992751496654        0.84457516996298       47.20628617779978
H           62.01199808412088        1.56438085241566       39.90022949274361
H           35.68845809242070        0.39746643107841       37.61744248450886
H           29.43722436468338        2.85251130608351       44.40508419615109
C           28.01999160414179        2.43028571154370       65.44017350521666
C           49.20699335492019        4.43451639378775       39.24005207048064
H           29.39452610123082       -0.77872944100100       52.71812921614669
H           41.84334530951274        0.06982759693299       18.39685088394615
C           61.75407968485919        3.11070496684589       35.17960696355972
C           17.65552178430316        3.79121066204353       51.82447532612085
H           55.91825779227231        1.00310018388000       46.50608874388445
C           44.35213132531173       -0.01730958949511       49.41664014825803
H           29.63565725094888       -0.14481614531893       20.34845362694457
C           55.08761910648538        2.40727479968375       59.81478187660895
C           58.16674966059687        2.15925590753240       49.90273890962265
O           23.56512200797228        2.60812860239520       56.14535432582178
H           23.63348627040870        1.40078887162332       37.79177112913708
H           64.68840334795479        4.19154797013701       37.84717346852997
C           28.32919889750432        2.06019084466929       42.10940680383924
C           57.43387718419395        3.07581566412244       29.54967508089012
H           53.51441428125506        0.82515629618497       45.29193548526931
C           52.02829111993213        2.65889145533781       22.66860722699536
C           21.29052377920354        2.41300333698425       36.95746797959642
C           25.94266206574614        1.30064399388882       20.83112207222488
H           21.00111413206119        2.50074342678146       34.49312097262464
N           48.51371811734658        1.79540433569427       44.53102698115085
N           27.42449296824681        2.78591278790177       49.27301088682893
N           25.27430385649830        2.29633470833858       30.26262429829001
H           19.39627023996993        4.53091370976547       50.82834542224709
C           25.49733920230348        1.87969815511496       24.51297947866789
C           55.10641537704551        2.50825623955558       32.31616759749256
H           55.68274161382801        2.61663162238561       49.08288592202526
C           36.15182782051703        2.21292695458179       21.82733851772095
H           63.98994958948430        4.17298880946187       45.33772889033404
C           36.06072711074753        2.40190178460751       65.34605266908395
H           51.17773909939618        2.20689195245723       62.86568677100140
H           17.54546283668437        3.11100352599331       55.16016506759276
H           42.93876256957928        2.04191827130897       37.57596670748075
H           21.65673996395915        2.30684704013439       27.57706913149957
H           38.16178533271643        2.44106556123112       30.28832568579790
O           36.20858764454908        1.30729265891613       67.42459780508531
H           25.68037214728183        2.38297332711297       67.88930644254722
C           45.05352436016804        2.53006638224816       23.43645373887217
C           62.63858123365728        3.03056191550610       36.32422191697767
H           37.86602683044688        2.83968391171396       25.36336357697236
C           16.80396927734897        3.73306030355154       50.65884360354703
C           14.27518347572555        4.23155813498146       47.12153835744188
C           45.07069991040211        1.48251137037695       66.92313932830072
H           53.28438475424336        1.54747284934232       31.70124512392706
C           16.52408884865599        2.62644025260331       47.16128664356066