47
 energy: -60.206752592194 gnorm: 0.000028872137 xtb: 6.7.1 (edcfbbe)
H           42.47322680369652        2.20961231824552       46.57350647966894
C           47.46525605152782       -0.93552172615648       43.45163547428727
H           47.75319008370469        1.98157345930603       40.76731074247132
N           45.00948051282591        1.95847135975789       40.53430250402810
H           45.30485722227799        2.18020591715068       45.58013953501613
H           44.60010686279236        4.37431965088220       46.16986197950209
H           45.62075584504255        2.66055896111202       40.10596908243097
N           48.74225539998267        2.21719771478257       40.77462305163728
C           49.34237798222878        1.76616052023675       42.01485790535980
H           45.23676522016480        3.04924089622713       43.41581473070173
C           43.54908458476873        1.43282197724667       48.83002057718277
N           46.68541115501022        4.03916162144021       39.48178816814483
H           42.92453518328548        0.66466503411390       48.37352528341808
H           45.93428174431894       -0.46644580740358       42.19842867334841
N           44.14945874031650        2.22755204079534       47.77617426779815
C           48.13283338142720        4.05209334196201       39.27065928811001
C           44.23584497189487        1.08552806470632       39.68623306357380
H           42.61154574499761        3.69886418627086       47.53498935856029
H           42.92519853941018        2.02026068768201       49.52039331507071
C           48.86908900671479        3.64403357972181       40.54534312405299
N           44.66078260817092        2.68278813077168       44.97568393348759
H           48.36191027692687        3.32996263396182       38.48368503160579
C           43.18326960261425        2.94609092645018       46.96399567400012
N           46.88589820901716       -0.81353064035904       42.12716382816598
C           43.90256983502603        3.62092153135825       45.78928235300705
H           48.49788606658925        5.04152224049527       38.95500693546499
H           44.80513717327745        2.89084167995666       48.18212757109364
H           43.16991585493821        4.12105100503082       45.15155989930115
H           46.21117166001590        4.37257509821832       38.64863951950866
H           46.44733039919766        4.66395523599708       40.24792262212875
H           47.41003103550534       -0.15270988702806       41.56460266088604
H           44.03511718506013        1.98432738357354       44.57299972910021
H           48.48367803088002        4.24361679762881       41.39092541297431
H           49.93478451341978        3.86853398568591       40.43167189823868
O           45.43364172098045        3.06169778992889       42.42904244951211
C           44.76767405348501        2.04736114935015       41.85484436079267
O           44.06287576666284        1.28232470543024       42.48579911340642
H           47.51158641474090        0.00641995060802       44.01816233049355
H           43.61491151593492        0.45917251147039       40.32481291312586
H           44.34004448809183        0.94679774770945       49.39801776223499
H           48.85475601152574        2.17304066542427       42.91326628598956
H           44.89758136527780        0.45110110164255       39.09449321171230
H           43.59607865138013        1.66193399345773       39.01363367680367
H           49.31347037486833        0.68035418439215       42.05083462601053
H           50.38815063520229        2.07791524499060       42.02595415252583
H           46.87002440763990       -1.64660663139361       44.02366404319213
H           48.47715420784827       -1.33196508344657       43.36040346217667
