47
 energy: -60.176361960367 gnorm: 0.000129521496 xtb: 6.7.1 (edcfbbe)
H           41.99439541605653        0.44003607377272       46.52421674433928
C           47.24953701585850       -0.32708884478919       44.18363425312038
H           47.86788596490940        2.07193230064333       40.79796465767000
N           43.89652641535421        3.13928541858484       39.96737152391259
H           44.53673180947796        0.16396420092465       45.07781779243209
H           43.96908705762673        2.46801006830755       45.35445930177470
H           43.68101993057491        4.07027497172831       39.62742286629673
N           48.87546951012410        2.18507847243002       40.86866675630019
C           49.33048098078730        1.82636656052853       42.19680231554884
H           44.71910216720436        2.80348542751468       39.47555564512037
C           43.47527821800280        0.29863869768559       48.73119691842043
N           47.18922430894758        3.83966862535788       39.11053568707595
H           42.77846308508581       -0.53567199307255       48.64406258605023
H           45.60561637746513       -0.06494134127261       43.02536890551102
N           43.84172130364372        0.73795910887623       47.39847492532439
C           48.64785628581579        3.82789451394278       39.07759370148561
C           42.76203582228814        2.25357427015333       39.76642379974503
H           42.21860512515691        2.10145340835963       47.11664786499922
H           42.99669100088865        1.08492118706467       49.33476839813788
C           49.21056887361092        3.53631627812219       40.46688869458416
N           43.83810193691586        0.60167088451684       44.48285535969502
H           48.95385262886968        3.02832585215967       38.39931526653145
C           42.72461148384139        1.25062017104972       46.62587695514711
N           46.56132944053530       -0.39177460593934       42.90867224007117
C           43.22068922181978        1.67726897269730       45.23871346805794
H           49.07703243933368        4.77772684319667       38.71629378139244
H           44.55756873032640        1.45746426382518       47.46378840815380
H           42.38980345530281        2.08240225310266       44.65696907538743
H           46.82668769395480        4.08186622995810       38.19439084324057
H           46.86421806087423        4.54153958120516       39.76921108080216
H           47.00275213856138        0.23327261194008       42.24258687250871
H           43.14457878785604       -0.11167982236317       44.27665858306965
H           48.83301094575432        4.29834859529611       41.17679067072527
H           50.30211223087894        3.62082115429204       40.43728926540949
O           45.49103635569042        2.52676070559815       42.10533986131810
C           44.47678027182609        3.03918926683131       42.27223748879214
O           43.51718186278612        3.56314649817855       42.62339397548216
H           47.28664559931372        0.67676233787202       44.63155794343658
H           41.92652259823461        2.62306239878237       40.36018429198570
H           44.36927397580292       -0.04628490330458       49.24719191746099
H           48.85522015773238        2.40755951501921       43.00184080155918
H           43.02943317703704        1.26054631291716       40.12486307148995
H           42.43982369243515        2.17194601241366       38.72031166520895
H           49.13840883618813        0.76895508669566       42.35729018748034
H           50.40816561286372        1.99112711621262       42.25037156960536
H           46.74894679887533       -0.99525954924290       44.88541458667081
H           48.27293032655432       -0.68173726687841       44.05551636692051
