47
 energy: -60.042319315368 xtb: 6.7.1 (edcfbbe)
H           41.81846763224615        1.48283948985321       46.30538636316462
C           46.77515851856057       -1.65288726487223       43.38284309683880
H           47.50023922964107        2.26377071141227       40.73656847436585
N           44.98809168917450        2.12866401115173       40.74621055434634
H           44.62922426249319        1.17693482095572       45.38767235481161
H           44.07522956534108        3.48460032413921       45.80431596845513
H           44.30165820163877        2.82953138235251       40.49080885895875
N           48.47695730360648        2.55157569838651       40.67513035487841
C           49.22081094310952        2.09536212099162       41.81472033697555
H           46.12828888461438        2.19507290072260       42.08921521990385
C           42.74532019375971        0.48438740512451       48.39951374325936
N           46.32719092202551        4.41820283069282       39.59260608316686
H           42.16779386456395       -0.20004902618701       47.80016088093578
H           45.28747425348852       -0.90704894678802       42.23494409165600
N           43.45100807544646        1.41258266702472       47.52549729149023
C           47.76619164124420        4.49768091044542       39.39988842372006
C           44.71362623753202        1.00905640184955       39.82435297666034
H           42.03147379959719        2.99244196382809       47.19865407022421
H           42.05330512935740        0.99159764565419       49.09555610539245
C           48.56277657162832        3.98648887879902       40.59654977919475
N           44.02658856417775        1.66664278642896       44.75132650246712
H           47.98434273176606        3.85908790437731       38.53025393223588
C           42.57735359666579        2.18257085171000       46.66001980818938
N           46.13214771729415       -1.45258235586699       42.09466476524745
C           43.35398164717675        2.72560266602070       45.45351751755109
H           48.09095296029604        5.53838540794869       39.24914766383053
H           44.06279465059166        2.05594691641683       48.02634327006909
H           42.66351534164123        3.23612100653505       44.76914075995643
H           45.85028535665190        4.73711072702200       38.75098262482310
H           46.06374372094368        5.02005745353673       40.36411617855441
H           46.71671399793658       -0.89391767615759       41.49860648495350
H           43.32956983746980        1.06305093263274       44.35226603933403
H           48.23040546657220        4.48585113702308       41.52275327564583
H           49.62123371655270        4.24565966651812       40.45704552327516
O           45.78930304911005        1.99139716687923       43.04954150359391
C           44.62641418312588        2.13023301492179       42.56955713687413
O           43.52142113046160        2.48789188656849       42.55354799599170
H           47.03381375883501       -0.72167616269603       43.91087940365718
H           44.12706070554336        0.24642620233817       40.34666122966238
H           43.46019859122752       -0.09829898206858       48.97938563502398
H           48.92692364810972        2.54607316485606       42.77555546634242
H           45.64753220892976        0.54565496447059       39.51329585577530
H           44.20491357750097        1.36502912324938       38.88000853580594
H           49.05797463075925        1.03519521808855       41.92945439682366
H           50.28317040830625        2.27385030380607       41.65987466980405
H           46.12094363198667       -2.29135076558100       43.94949362089848
H           47.65993410778832       -2.26925372636466       43.29224958134038
