50
 energy: -65.267509758846 gnorm: 0.000051685261 xtb: 6.7.1 (edcfbbe)
H           41.84391111504325        0.67092163852606       46.29575113590427
C           47.11865970493712       -0.18364808329619       43.81668706697193
H           47.86102158273861        2.79882135732715       40.88749585503086
N           44.13822643416059        2.95501516770031       39.86933116277022
H           44.36519613035805       -0.13225868891471       45.06731938007972
H           44.11301981017804        2.24934930818605       44.97314190266260
H           43.91932452913190        3.87729305837073       39.50429315104510
N           48.86889323279701        2.66176965978161       40.88133797585985
C           49.24153535958320        2.02361619883709       42.12953911101653
H           44.97106007881952        2.59127446731116       39.37194624168403
C           43.21647693293064        0.57379237926435       48.56036820500498
N           47.75701581409724        4.67452641226786       39.07477383985594
H           42.43571264740476       -0.18621116344656       48.51255515541663
H           45.32945781217038        0.10773384283458       42.92287218924999
N           43.68652057531231        0.84112957765885       47.21462423096217
C           49.19352252941903        4.45959117078460       39.24746056228430
C           42.98485200271355        2.07447425883675       39.75416710077252
H           42.26950421261045        2.35383937209089       46.68086705807793
H           42.80249749974376        1.46037447172972       49.06481645341228
C           49.50426660473202        3.94453808323487       40.65218785246868
N           43.77092737291299        0.30641419244610       44.36827093294847
H           49.50414948316761        3.71343006133865       38.51207859894832
C           42.67221109493734        1.38755829466890       46.32952604557133
N           46.30150801036998        0.00250463665346       42.63207768028722
C           43.27143349977391        1.55174615781423       44.92674157129302
H           49.77792381429138        5.37707979307501       39.08020354295386
H           44.47472240683020        1.48251299512256       47.24977501334087
H           42.52989363482991        1.97142214935728       44.24499585301496
H           47.57955441567898        5.20998104308515       38.23198721352218
H           47.38322708548911        5.19218438030624       39.86413372482050
H           46.55804960657521        0.87260203263409       42.17429208393507
H           47.01405398851561        3.10129591004435       38.76973208564287
H           49.20405043918338        4.71009799109710       41.39276620571597
H           50.58704677599498        3.80758910907313       40.73849279236762
O           45.81993910521896        3.15582363780399       41.66763905859428
C           44.64582214946467        3.23856953656494       41.67732408357682
O           43.64580824093438        3.43077094360437       42.25544098671200
O           46.54246315167208        2.25438393113721       38.60882778808026
H           42.99631457690172       -0.32955955953389       44.20147061314497
H           47.04554859358367        1.58891420149835       39.08501475524109
H           47.14787137770416        0.68431785944099       44.49064749204558
H           42.20089082237417        2.43299014969058       40.42196496375551
H           44.04388936314990        0.18690686317112       49.15234384695205
H           48.90499034674590        2.56880339243161       43.02213043484726
H           43.27769696852197        1.07434516783465       40.06782596440765
H           42.59773518843424        2.02949601991034       38.73383826009798
H           48.81539135780039        1.02624219581869       42.13413942075906
H           50.32898009431924        1.93634268973840       42.17156058420465
H           46.72847344110529       -1.03394060947382       44.37685098504784
H           48.14161293194244       -0.42346955886659       43.52323566537134
