50
 energy: -65.166185513212 xtb: 6.7.1 (edcfbbe)
H           42.20235242980775        2.18065065244941       45.86288602004106
C           45.91690547379785       -1.79916916950005       43.34559961660754
H           48.14336540044361        2.85227671653421       41.02415805027716
N           44.69855677873892        2.43053036666145       40.09270438000251
H           43.75213542940606       -0.23002564868495       45.24483464117494
H           45.24350821804647        1.55547424528950       45.66052699356641
H           44.15570784203909        2.98228208804961       39.41649594106234
N           49.02209867648197        3.05569766435516       40.53858212928274
C           50.17325043792048        2.23198355423272       40.86625912240321
H           46.32867824692121        2.21252698811820       39.03970069289383
C           41.94347263082236        1.43522543350319       48.13365332699216
N           47.26227068695059        5.27994986493727       39.71667205517470
H           41.02086347120143        1.60887981009054       47.57891866019642
H           45.13347084136711        0.01842896259825       42.64807461659449
N           43.00832516515778        1.05091487509502       47.23034945716506
C           48.71272177633430        5.41490503329254       39.76974414911914
C           44.20537007260504        1.05643365158958       40.21224832890073
H           43.55709646104202        3.05398403129619       46.70533690176649
H           42.16364335904179        2.34858060461620       48.69846222555808
C           49.30441864847955        4.43360057695962       40.83458365853028
N           43.84838463874215        0.48049089612769       44.50214790253118
H           49.07217546631057        5.21850714404008       38.72984422858180
C           43.23251884755339        2.10123272582196       46.25008904141269
N           45.98120142626188       -0.52772955809009       42.55211875116812
C           44.27027647799774        1.74584855978705       45.16445226863158
H           49.04948317485062        6.44089370047108       39.98815983190381
H           43.84821075696746        0.84505222142555       47.75981839282783
H           44.53143653469300        2.51264097101339       44.44570121480211
H           46.79560325553624        6.01025032063415       39.19993099265230
H           46.91864180341050        5.19488582290538       40.66539203993712
H           46.75261016148597        0.06061857359658       42.87957296925093
H           46.96907265673506        3.76631764105669       39.00283536684160
H           49.02647003239422        4.66511911586957       41.89001514860842
H           50.38472236294106        4.49348880770477       40.69082321230815
O           46.06439673233596        3.38429104667208       41.66716855553334
C           44.84443750459346        3.04562403601112       41.50210832700957
O           43.86488049887838        3.04255460957075       42.21048983540138
O           47.00469905555388        2.81367026600125       39.36351988907374
H           42.84446739123418        0.46399430192155       44.21436532557959
H           46.65462308821846        2.90693704624757       40.43966897354812
H           45.85366251982714       -1.82050571847807       44.42978125926803
H           43.40327150647196        1.01645782760174       40.96269184705339
H           41.77308261108105        0.63509876346352       48.84920861169095
H           50.44211315524566        2.28023136022028       41.92637973450559
H           45.00410806400715        0.35358308996126       40.44069542706680
H           43.93166368409161        0.66923095441954       39.21106400758298
H           50.05976440590540        1.21585079069909       40.50346693769732
H           51.07845033224121        2.56994609615580       40.37959829759190
H           45.06951771728464       -2.43976330459771       43.06939831054562
H           46.79530011733699       -2.32584336212905       42.94594720069373
