323
 energy: -515.987127310934 gnorm: 0.000515731368 xtb: 6.6.1 (8d0f1dd)
C            5.50367097777290      -10.57728002740530       -3.01163939611007
H            6.22879407191209       -9.85273113809307       -3.36984232086210
C            5.00045788839576      -10.18174091955438       -1.63002806175352
H            4.55615412324968       -9.18397114537968       -1.67694842793032
H            5.84122009132427      -10.14193853369087       -0.93575918667781
C            3.95855071449357      -11.19199698700983       -1.13499899285152
H            4.44693967831255      -12.14759418160183       -0.94645142572303
H            3.19731572541961      -11.31936561790277       -1.90728872597654
C            3.28409649011252      -10.71077022910682        0.12402681715980
O            2.17455397905030      -10.16656890007911        0.10749273277818
N            3.95819966388392      -10.90383229595691        1.25484942924276
H            3.57602234915861      -10.58908994359299        2.13667799945799
H            4.87925455669249      -11.32223885499715        1.23177290843231
C            8.55368718128515      -13.30532431930662        0.83478223720379
H            8.54619132340095      -14.20473831848171        1.44544662091335
C            7.76001863288321      -12.22787709119133        1.51736880251726
O            6.70590602490595      -11.77919446344853        1.06729673463142
N            8.26912149133945      -11.79732617908416        2.68174243208208
C            0.56265510290605       -7.66082765911561        9.64591829058470
H            1.25886947357633       -6.93465732035712       10.07044849986824
C            0.68443533722259       -8.97783639690448       10.41877271602599
H            0.69760147914571       -8.79167777729441       11.49045401000929
H            1.61998925320016       -9.46195314679783       10.12759785560394
C           -0.46850998724491       -9.89312421084161       10.05055971392522
O           -0.80198726661936      -10.06217981203563        8.87797753938999
N           -1.07395055307010      -10.50079003553845       11.07117778290560
H           -1.94414982567230      -11.01728577402607       10.93709531104347
H            9.17014449534156      -12.13127639436566        2.98579075681190
C            0.95317086895609       -7.86621460665960        8.19615554746009
O            2.01828616019487       -8.41024648370697        7.89685533537144
N            0.11911836819222       -7.34513677002926        7.29590738206918
H           -0.80608515564166       -7.05373251476540        7.60120124545400
C            0.30369699957236       -7.45823260075863        5.86576467551825
H            1.37314396745809       -7.57408925180776        5.66643704804449
C           -0.48549147399897       -8.67639327679511        5.34581877994670
H           -1.48122669253336       -8.64558958775295        5.79015480079230
H            0.02013643179256       -9.57315863383022        5.71204692488904
C           -1.72156477836845       -8.91016986664774        3.09183843442509
H           -2.74349608203234       -9.04674972798705        3.37249478495004
C           -0.61371585564755       -8.71015232408937        3.86734250046316
N           -1.31531011887474       -8.91273810962602        1.79425440595061
H            8.80958398449621       -9.28403276880562       -1.50543143081928
N            0.44346467716520       -8.59959886452539        3.00579841688535
C           -0.00938786372569       -8.71298221940076        1.76396929162023
H            0.59189940395521       -8.68876432597526        0.87869201719476
H            5.18656706624452       -7.91454682501929        1.93812046626959
C            4.11831023592969       -6.60458460912108        0.68128942090475
H            3.95178900991025       -6.78842756810744       -0.38946174466385
H            1.46998764252072       -6.10232651032196        4.01307562814755
H            2.69292156845874       -8.13096036005998        1.09834440835307
H           -0.43098407858094       -3.84613597503654        4.24485108347352
S            3.12312395724103       -7.15108971603213        3.23717814786409
C            4.26677575548579       -5.09863836789039        0.84264980284615
O            3.73448653866024       -4.31597393327094        0.05602948544415
H            1.14771004354164       -2.72572650370232        2.65712234532416
C           -0.58834882311241       -4.84130065980965        2.33036104082107
C            5.25412704154177       -3.29530485421125        2.15786375344121
H            4.30220468502534       -2.76264055848415        2.29407500173898
C            6.09284342050024       -3.16946627742890        3.44166348496789
H            5.48715239363919       -3.51213058542778        4.28023119644941
H            6.32301720590265       -2.11253013462541        3.58036418000307
C           -3.80941879925730       -4.60528406304717        1.27533776139550
H           -4.40484797785691       -4.68769781502300        0.36063121404788
C           -3.74376246315463       -5.97389452764502        1.94800317652646
H           -3.13284508141269       -5.92814793294088        2.84859793171444
H            9.12090982781046       -6.60473502573892        3.85479994390716
H           -4.73879362843768       -6.30682232317970        2.22882934958246
C            8.60977007705500       -3.57454491562237        2.85453664872225
C            9.08576112519482       -2.40051734222735        2.26959246415367
H            8.42846057559349       -1.55559743983369        2.12012106689400
C           10.40225220234570       -2.35183750117419        1.86872358970807
H           10.78629433449777       -1.45429806798496        1.40703037156618
C           10.81579320879297       -4.61758685017001        2.61555614620376
H           11.47250763982119       -5.46392054145720        2.74738404730737
C           11.25763209635784       -3.44555254826768        2.04041108437790
H           12.28223127631538       -3.36533412187828        1.71063579772065
C            5.96395648111351       -2.56192511004542        1.01594479431488
O            5.96034284383714       -1.33382850726756        0.99434278723635
N            6.59083003828812       -3.30655765572023        0.10401793245171
H            6.56202950168108       -4.32085360935105        0.13267791543260
C            7.28200691594808       -2.73695308498712       -1.02789513013055
H            7.58399218623931       -1.71890679595974       -0.74809305164748
C            8.50527118713600       -3.58228186249509       -1.36278579299926
H            8.19336008758956       -4.61362129537772       -1.51160143105028
H            9.22663076815083       -3.53752801263594       -0.55108033372799
H            8.95456816369691       -3.21034779918970       -2.27863678838078
C            6.39648888430852       -2.57529310560677       -2.27655125210140
O            6.89755554430083       -2.20746126494681       -3.33738686097829
N            5.09526803294742       -2.80503391688728       -2.12099870460039
H            4.73410839238528       -3.15130034570278       -1.23873061768538
C            4.12661026763041       -2.68422486659309       -3.18750473950945
H            4.68273516473403       -2.48828101251100       -4.10771572470331
C            3.27671678750213       -3.95508351481998       -3.31259545091396
H            2.42530286622709       -3.73673884256721       -3.95739032171303
H            2.91201246013188       -4.21593216378861       -2.31628217023395
C            4.07079636712264       -5.09625157368227       -3.88002495763115
C            4.96461261181570       -5.79633681864736       -3.08022884692567
H            5.07898851530892       -5.52773575188213       -2.04134700720090
C            5.71287448544305       -6.83665762524343       -3.59814021700578
H            6.39803379765070       -7.36181429911637       -2.94869635279539
C            5.57707830800770       -7.19648665266630       -4.92796557851253
H            6.15664242905168       -8.01172722389322       -5.33445375140038
C            3.94744908998792       -5.45942149616541       -5.21534324786568
H            3.26024342066786       -4.92067493945200       -5.85168303554492
C            4.69195626575569       -6.50365811192402       -5.73576918525732
H            4.58196264063577       -6.77674808975074       -6.77455219414858
C           -2.48178015973322       -6.88204426725278       -2.03434259699646
H           -1.94416374268708       -6.80293827340466       -1.09007287479777
C           -3.87679461566671       -7.46466222272892       -1.81158006924371
H           -4.34281423362916       -7.65823925779929       -2.77864520195829
H           -4.49729959786456       -6.76330263194372       -1.25320305187559
C           -3.78556878453762       -8.76185514330692       -1.03137792804627
O           -2.73491455926014       -9.13686223440958       -0.51588553033346
N           -4.91741972325006       -9.45593046047022       -0.91923667837732
H           -5.76677028793213       -9.15954860171747       -1.36759486868390
H           -4.89677205456392      -10.34224395802261       -0.43179870134948
C           -1.70169230693384       -7.75502396566843       -2.99455179158300
O           -2.22498375426871       -8.24644778242616       -3.99778431695310
N           -0.41381045570828       -7.93817439698524       -2.69609857799896
H           -0.02302580266390       -7.57409072803097       -1.83412680538857
C            0.57407970399300       -8.55496348906527       -3.55736649450427
H            0.39632862455052       -8.23554456924481       -4.59230566166651
C            1.95951591072148       -8.06603762236981       -3.09410082385408
H            2.12959857983098       -7.04186236074568       -3.43414498264151
H            2.72914225427143       -8.71175351033882       -3.53077274564731
O            2.05985253995929       -8.02193045105418       -1.69367876123294
H            2.02642946482219       -8.92936770689061       -1.32711731293393
C            0.50889187297117      -10.09855867499086       -3.55930866402322
O            1.50298104951502      -10.78595080208639       -3.33804659061837
N           -0.68502225975214      -10.58694523871821       -3.87338729710185
H           -1.43644325380010       -9.92718962764925       -4.06900593036131
C           -1.00865553194601      -11.99733884164790       -3.89721668907470
H           -0.09617783398921      -12.54880992349480       -3.66383773154373
C           -2.11916878274791      -12.33607706738345       -2.90234440706281
H           -2.41578297545085      -13.37668643057168       -3.05952486342663
H           -2.98882662616470      -11.70850555544468       -3.11879721871858
C           -1.72369818099195      -12.14011915757626       -1.47282130438316
C           -0.49733271394642      -11.82881146136422       -0.96416449778822
H            0.43828774561948      -11.66896631106191       -1.46096008498077
N           -0.55431053660175      -11.72961691980856        0.39698716624561
H            0.22068263980213      -11.42158511190490        0.95962537599983
C           -1.83220425776007      -11.95778245360996        0.80464019713304
C           -2.60475395797732      -12.23622029934969       -0.35211159829566
C           -3.96366572736481      -12.52080732135052       -0.21282645794304
H           -4.56438309515893      -12.75688813191382       -1.07925856297344
C           -4.51679739781060      -12.51184051711292        1.05078909805257
H           -5.56686893491848      -12.73170138047167        1.18024345113695
C           -2.39557030778801      -11.96063084694936        2.07511227281979
H           -1.80025196654598      -11.75739847573404        2.95178537859078
C           -3.74244695370375      -12.23409614628082        2.18138445327132
H           -4.21159676426506      -12.24139630976415        3.15445619479593
C            8.67458276342674       -8.77641313982134        6.90186793485549
H            9.09870506986011       -9.60458883050684        7.45961510335972
H            7.64425749257687       -8.60016055475124        7.19043692979933
C            9.49893116911659       -7.53615840668075        7.11148678498946
O           10.64445329996519       -7.55199417666230        7.55561839148255
N            8.90559431035805       -6.40591807374546        6.70269560440451
H            7.92905169213468       -6.41515523123318        6.43757117335289
C            9.59059016960058       -5.13696569323618        6.74078339116660
H           10.33436629874574       -5.09275234148421        5.93657849319814
H           10.12625368124803       -5.06069811876985        7.69546916184053
C            8.62444217323916       -3.96903351932546        6.61272409161961
O            7.43322199247456       -4.06194570802902        6.89011373535533
N            9.20155068076053       -2.83596343020220        6.20521598905274
H           10.17769415288764       -2.84310131445013        5.95355969791611
C            8.48580664309005       -1.60003015052080        5.98883176582301
H            7.45512935797954       -1.74565376895640        6.30438695643416
N            4.24381780822067       -8.76934386126879        6.12879533372526
N            5.91097383035084       -6.47101956822369        7.97590938976936
C            2.14265847376851      -10.83626289066866        4.28547111300173
C            3.17030433646124      -10.38721124604315        4.70547245097111
C            4.42766217344266       -9.87297567886697        5.20356525037465
C            4.72313943999748       -6.61458666233459        7.13843276850706
C            4.43921286186423       -5.30899870061449        6.38671900882165
C            3.71097277790432       -4.23877781138666        7.21006747279348
C            3.94554317054546       -2.84954401240272        6.62980588541364
C            2.22980048779365       -4.53878815504625        7.38914767475191
C            5.96002153308191       -7.12094557530605        9.24739970790327
C            5.06414377629544       -6.52588887537224       10.36532917669301
C            8.08284468662744       -5.92550787018901        9.89606763701847
C            9.38803322326810       -5.92588909939329       10.34841699166719
C           10.03150696309610       -7.11967225413168       10.65883192360821
C            8.01029700162411       -8.30976848678517       10.11419836301477
C           11.43946539390675       -7.11998318858411       11.08229340434844
C           14.08793692163353       -7.12910209342736       11.85351616793652
C           16.59862228109509       -5.92995411964687       11.17871291220826
C            5.04344522639339       -7.70562171705549        6.10413256236911
C            7.38312062440401       -7.11980574200505        9.77186195929383
C            9.32468249787111       -8.31186275917520       10.54049891526703
C           12.33968265987067       -8.00379026659093       10.48765654075918
C           13.66848958824844       -8.00488963053894       10.86964344675213
C           11.88711986319306       -6.23767235316588       12.06494121491820
C           13.21436257562443       -6.24286177285880       12.45433538369067
O            6.01022791710569       -7.61068880864742        5.35114567853154
O           15.94354541306047       -6.58201447211729       13.66644340963901
O           16.39508324953091       -8.41260814151070       12.09410634768617
F            5.39227067504973       -5.28619948642497       10.75206127187351
F            3.75183202607405       -6.49221802408079       10.06891888578080
F            5.14771663085121       -7.28701314774455       11.48500494239926
F            4.27961833771303       -4.21695817237488        8.50643386808866
S           15.81391046083738       -7.09393577094201       12.30834735957633
H            4.97230493648877      -10.68492358646585        5.70208795910004
H            5.03425189394435       -9.48240179846775        4.37907711466844
H            3.84591263716186       -6.92320855711235        7.71628496684862
H            3.83782441693192       -5.53356060007174        5.50360247282860
H            5.40586121847280       -4.91663076860600        6.06535305843475
H            3.56972506095937       -2.80514849307802        5.61334371192058
H            5.01204253213171       -2.63766673544489        6.63193406808881
H            3.43711418446030       -2.10361557924713        7.23468231822279
H            1.77525429675190       -3.79247851438110        8.03549183759829
H            2.09149858231563       -5.51368649300624        7.84856520813517
H            1.73176963980031       -4.53357828913555        6.42577037443075
H            5.59589245741448       -8.15097304736022        9.13361729482061
H            7.61066138650803       -4.99066019604163        9.63526986515448
H            9.92400775152540       -4.99316804253035       10.43402179516140
H            7.46920696265722       -9.24023655414154       10.03565946396703
H           16.43244677790078       -6.29459349944678       10.17444963325757
H           17.65420548583636       -5.90204426885597       11.41530155929374
H           16.13682153379019       -4.96547278913220       11.33850578590496
H            3.42876667895715       -8.78547111632764        6.73345293449120
H            6.24230533400072       -5.51406920341833        8.00615008919399
H            9.80558755214313       -9.24298622055955       10.79579864050676
H           11.99440541717359       -8.65095474923929        9.69744319035756
H           14.38530425038113       -8.68032890501752       10.43123379307699
H           11.18848683416204       -5.56193632877540       12.53271689429428
H           13.58460536722289       -5.58614470554552       13.22513917096858
H            1.24225116299371      -11.24282459478794        3.93323636733138
H            1.41586544312410       -8.29630685385629        3.25522954276296
C            7.61178050771362      -10.79200293619568        3.49193068123391
H            7.92824207677253      -10.89959777904782        4.52846942961339
H            6.53247831867631      -10.94045375050098        3.41139464066933
C            7.96317571827429       -9.38346289265141        3.00718317463789
O            8.76571166450434       -8.66962330805684        3.59322551729080
N            7.32370559648367       -9.02374386786417        1.88289291116651
H            6.82936619644417       -9.74131515304894        1.35899120952414
C            7.68671394712298       -7.82460854078563        1.16878831079968
H            8.17756708971678       -7.15213806933660        1.88318542177491
C            8.70190634711282       -8.12323721644695        0.05306826360216
H            9.63860724843084       -8.45818460003307        0.51754514071220
H            8.88244830465408       -7.19181337914711       -0.49619617559754
O            8.18055794777380       -9.12516323044499       -0.78989146887628
C            6.49647045326316       -7.05215864725539        0.61202758300388
O            6.66783045984043       -6.18022945792994       -0.23766250223199
N            5.29506702862134       -7.32647717828302        1.11804427347676
C            2.88798935454796       -7.11290577200332        1.43369440013835
H           -0.80751058289317      -10.29711925993596       12.01895694708142
H            2.02608832728950       -6.48816802747182        1.18883967223287
N            4.99408449219707       -4.68871484922090        1.88402425326491
H            5.33975572822186       -5.35996400685984        2.55852071044356
C            7.34503229603709       -3.97777529030402        3.38001960680921
C            7.50109969876294       -5.26461925675562        3.81686870890948
H           -1.90555456180422       -9.05449307678371        0.96660168652188
H            6.79527861175438       -5.92445799635295        4.28645355702324
N            8.78262050337370       -5.68529447651018        3.60629250817346
C            9.48760023553876       -4.67662470809726        3.02073897862731
C           -0.22769512769262       -6.18525823119185        5.19738627358063
O           -1.33477914528276       -5.72739994183696        5.46761612158025
N            0.60473684045748       -5.61799471665940        4.32285396438461
C            0.20959204200832       -4.43871973509761        3.58129512093496
C            1.43999644799558       -3.64185579710514        3.16129317088948
H            2.04749107877974       -4.23157824659047        2.47749418523449
H            2.03750640678744       -3.39479548611944        4.03497049121551
O           -0.35725331479315       -5.87577912680458        1.71642289144068
N           -1.51246704396322       -3.94967125326566        1.96453943525200
H           -1.68322688884628       -3.14983762227263        2.55339113252781
C           -2.40840773489640       -4.14074078790339        0.84478739663915
H           -1.94855575290041       -4.89375243918692        0.20289005172746
C           -4.27232395481883       -6.12913374330807        7.34102528900511
H           -4.81481214297470       -5.37177389443781        7.90985862301564
C           -5.19699639889662       -6.76080410590043        6.28844591671528
H           -6.06494076710604       -7.20959330322937        6.78578903418673
C           -5.69260502731233       -5.66850309710154        5.34441387987752
H           -6.37308981365745       -6.07902975553443        4.60492761284553
H           -4.84749605531164       -5.21408037955937        4.83558536438473
H           -6.21860762759297       -4.89786216199985        5.90204882099817
C           -4.44899040044083       -7.86764990514950        5.53420952793544
H           -3.90801288310299       -8.48104955262810        6.26192406126511
H           -3.70883152342983       -7.40197201856408        4.88060631676907
C           -5.37897129791214       -8.77878731043262        4.74085941298392
H           -4.81440021721348       -9.55884480776829        4.23614318291741
H           -5.93748736009072       -8.22070868767213        3.99557155027795
H           -6.08265501078792       -9.26489618884547        5.41521415594553
C           -3.69864071605485       -7.13559542692430        8.31159640276574
O           -2.49595450354814       -7.18365254951440        8.56869029695882
N           -4.58666090441709       -7.95198316488443        8.90289283568371
H           -5.55449917435576       -7.91643577176798        8.61586274057749
C           -4.20274237245982       -9.18576542977625        9.56077103101849
H           -3.13592306048854       -9.12407283837514        9.78273155989427
C           -5.01032709596067       -9.42833253459103       10.82595185811410
H           -3.30100189666365       -6.70948209562824        1.28170570829635
H           -6.07739951725336       -9.43975342243861       10.59369867189700
H           -4.82308983006617       -8.65701365256500       11.57437125632082
C           -4.68449769270778      -10.81028001107092       11.46065495433818
O           -5.39751119961573      -11.16654934663800       12.41468647340181
O           -3.73191021934007      -11.46257031359237       10.97889346362012
C           -4.47478133814507      -10.33121431803630        8.57113153196007
O           -5.63373934923856      -10.62568639548021        8.26962553676157
N           -3.40168881476801      -10.86454351335904        8.00140446793307
H           -2.47026820584143      -10.61608838096516        8.34108844438976
C           -3.46762055686691      -11.98922531247715        7.08853805407011
H           -4.48923012488715      -12.02794262879082        6.70189347489016
C           -2.44589948802406      -11.82322065985203        5.97475799956590
H           -2.45793837281896      -12.70125364993873        5.33634545350187
H           -1.45657970346649      -11.70567976300618        6.40966112600543
H           -2.67506599452296      -10.94131498527111        5.38370562627860
C           -4.47261525085166       -3.57877517622477        2.19183878559316
H           -4.47203825884568       -2.59333076230898        1.73256429644509
H           -3.95303291224320       -3.52269929305081        3.14575023685724
H           -5.50226972929253       -3.86359416447363        2.39049448032366
H            5.97373027919242      -11.55662133460100       -2.97580419409162
H            4.67588856166366      -10.61743082474624       -3.71710083695158
H            8.10698441483189      -13.52647813411930       -0.12971096296562
H            9.58280939959962      -12.98775882463935        0.69453267750405
H           -0.45164191637326       -7.27055351497873        9.70710151117824
H            3.47447755567386       -1.83167886178202       -2.97238597080093
H           -2.56491868696466       -5.89231037256269       -2.48637040218142
H           -1.33453533829652      -12.26125099475484       -4.90755220638409
H            8.69707980407392       -8.99621818776793        5.83552013892228
H            8.50579036067118       -1.33576265157137        4.93129430657901
H            8.93479709754396       -0.79871583418873        6.57324649736262
H           -2.48064207618717       -3.19782111957017        0.29871350362892
H           -3.42566621599085       -5.65116192707644        6.84207646008182
H           -3.27769859191813      -12.91065214061076        7.65095082490492
