344
 energy: -547.954601698115 gnorm: 0.000597659569 xtb: 6.6.1 (8d0f1dd)
C           -8.86671545880409      -13.16793331277758        3.11277920746208
H           -9.56664340211605      -12.38181997200464        2.83916280790159
C           -7.80601042906115      -12.62164185669777        4.07116161169848
H           -7.12114421123230      -13.42617434587629        4.34696649475899
H           -8.28959178716248      -12.26243250818525        4.98229838595472
C           -7.04128789462187      -11.49996742504980        3.42799797543587
C           -7.48362486880387      -10.18778480280866        3.53793608493724
H           -8.36768468486708       -9.97100960665135        4.12155396340058
C           -6.80053016207892       -9.15784745231612        2.91648158107688
H           -7.16130592760703       -8.14474544645124        3.01346071348117
C           -5.65655702795889       -9.42745070851976        2.18477191209711
H           -5.11725894550696       -8.62474825001560        1.70516304482624
C           -5.90075676815880      -11.75837150205095        2.67800400154764
H           -5.54947968075601      -12.77484862344063        2.57478292991065
C           -5.20551534351281      -10.73083392584686        2.06665929248468
H           -4.31621775591268      -10.94988216882073        1.49520622277121
C            5.00030476626333      -10.14982066388324       -3.32275333477498
H            6.01684093061531       -9.82294698411597       -3.53898053644483
C            4.66661423449054       -9.80971503931220       -1.86203075647880
H            4.57271510165107       -8.72383266714028       -1.77932801224656
H            5.48334041890176      -10.12083278200833       -1.20999167827014
C            3.36243809598614      -10.48690428148319       -1.41187756693052
H            3.56876982097464      -11.49395164828445       -1.04899143326769
H            2.67062443768056      -10.54179114763411       -2.25260291718622
C            2.70150329445084       -9.67866208186279       -0.32409852071106
O            1.74121925527902       -8.93992063524787       -0.57867820759493
N            3.20750851495689       -9.81082957588916        0.89442490887802
H            2.93376372498314       -9.18356153916307        1.64780433468644
H            4.00651848727471      -10.41644663748422        1.02823012154041
C            4.89272062964257      -11.63990931234815       -3.54213065895390
O            5.72971398114757      -12.44006338996530       -3.11557096780297
N            3.81649200417450      -12.03464747868622       -4.23259712397016
H            3.08161710283259      -11.35581958484254       -4.40884382502041
C            3.46120659181251      -13.43874722758042       -4.33700906664246
H            4.33867572900647      -14.00616409635909       -4.65008033362461
H            2.65688196357707      -13.54040121302471       -5.06304392730465
C            2.98314803631252      -13.87438857329458       -2.95199904580528
O            1.89465968132137      -13.51861143005883       -2.51359810123300
N            3.87270643416126      -14.57764237729155       -2.24359778811254
H            4.72726539786630      -14.88052402350125       -2.68815352394459
C            3.70779754698794      -14.90125479975172       -0.84534937592091
H            2.86163247886274      -14.31468799889972       -0.46689737979249
C            3.40521280266853      -16.39291013966292       -0.64258531416858
H            3.43641859035029      -16.60495514193751        0.42732262531308
H            4.18714187820120      -16.97796105978197       -1.12882709961113
C            2.04068032971817      -16.79832252723227       -1.21159830269160
H            1.98687698895948      -17.88634468785051       -1.24149034806549
H            1.91966994431145      -16.40273710926569       -2.21900036172004
C            0.90043240545463      -16.31843335801211       -0.32687419232113
O            0.48527776189869      -16.99083979360781        0.61385979387192
N            0.38118668737686      -15.12995325869464       -0.64615631375146
H           -0.37630508175042      -14.75991221649384       -0.09247188268596
H            0.76546704569318      -14.54563843662877       -1.38122049173360
C            4.92409685254572      -14.49808379051156       -0.00284164955822
O            5.00640751963405      -14.82083058372140        1.17653069022002
N            5.89021242120040      -13.81095833564213       -0.62836140949660
H            5.73912159248371      -13.38447804105672       -1.54224219713957
C            6.99829919961392      -13.27838586469590        0.13912578686576
H            7.46716533656918      -14.10503286008182        0.68487815142508
C            7.97675069538713      -12.60961532347325       -0.82222640974881
H            7.45847366879920      -11.84216166645495       -1.39626276730062
H            8.41422255746768      -13.33808236337806       -1.50128728075308
S            9.34272706869462      -11.73142547662482        0.01828164329933
C            6.47547455501416      -12.23838788028706        1.13476726457671
O            5.50866052982062      -11.53119555583901        0.86035876678859
N            7.15713897734848      -12.13384809490428        2.27141260135267
C            0.53509535966292       -7.69884607381446        9.60264061240317
H            0.95565923910003       -6.74661544006548        9.91684661945128
H            7.97040562527337      -12.71137479335963        2.41877509069564
C            6.87923438324038      -11.13560271724754        3.28324435461938
H            7.31139316228673      -11.46614980362342        4.22594674223108
H            5.79843369086180      -11.01548896438769        3.40108555828007
C            7.50347449002395       -9.78988427360094        2.91285038727472
O            8.46950127225623       -9.34365150569786        3.51498030187481
N            6.89604228467364       -9.15814215412188        1.89507552852584
H            6.22477748366113       -9.68047650368321        1.34239687314640
C            0.85716066993271       -7.90716168604609        8.14753878866759
C            7.48601853345031       -7.99229000611633        1.28246263520769
N            0.14192931867781       -7.16036986093770        7.30504703037070
H           -0.67322093255830       -6.66963431799624        7.65983859653265
C            0.26320710641651       -7.21630791530021        5.86574184765199
H            1.30217704113921       -7.45077099334910        5.61346639634344
C           -0.68695043095230       -8.31656820117520        5.34056033998187
H           -1.66702171400556       -8.15133431879633        5.79409367274241
H           -0.29850328979629       -9.26692137714112        5.71895045984267
C           -1.99491897136530       -8.66556084119348        3.15459070382635
H           -3.00169616187255       -8.79733406745870        3.49152266527584
C           -0.85587108409710       -8.40273398952768        3.86712105896373
N           -1.64761712871656       -8.75508619342928        1.84282622879104
H            8.42122086739493       -9.29314758228785       -1.53319600246579
N            0.16076734660833       -8.35461221176396        2.95608110234475
C           -0.34314405465098       -8.55504107539543        1.74507980824804
H            0.22979448949875       -8.54973550288986        0.83565016135701
H            4.92099560256774       -7.71082193969760        1.89556948759718
C            4.21465629775303       -6.11244466680286        0.74833521620515
H            4.15047043020240       -6.06411586327101       -0.34689920533231
C            2.83500831289227       -6.48900843975350        1.30785382424288
H            2.35962510906446       -7.22638380889020        0.66422343398431
H            2.19679244462734       -5.60313640430634        1.31060533150818
S            2.96350074182764       -7.15690964657024        2.99558211674723
C            4.53693257164819       -4.69199602466485        1.21024172417569
O            3.99927207667106       -3.72610843319617        0.67584780684781
H            1.00089409831959       -2.40266226231556        2.72968523571177
H            5.77260520286111       -5.40793126800869        2.67827912899380
C            5.79635157683399       -3.32169510078193        2.79742951805484
H            4.93380010148651       -2.64528550570897        2.84445842149165
C            6.35939231099273       -3.56179178353913        4.21257121387128
H            5.54273236325186       -3.91035692206351        4.84543153640956
H            6.73162639290210       -2.60922958109435        4.59056555509470
C           -3.68834166947540       -4.29270958449077        0.98076072804770
H           -4.21262709303359       -4.39056141483026        0.02473831112044
C           -3.71051190599669       -5.64046953603413        1.69609616600614
H           -3.24609867645152       -5.56227743622793        2.67746386078903
H            8.64333878056130       -7.56038580336932        4.32034896809088
C            9.45602941517419       -5.63594022884964        3.95799901590712
C            8.83038659933276       -4.36468760719490        3.91457582501554
C            9.59929145099950       -3.23072105439188        3.64992245704311
H            9.14226317759937       -2.25281746396598        3.60751208939701
C           10.94824118787777       -3.39086200498260        3.42968232384542
H           11.55959327577472       -2.52580993267622        3.21865657313996
C           10.81990083866657       -5.78810163318125        3.73902457299773
H           11.28051336496166       -6.76277331437596        3.78664834237732
C           11.55237438440993       -4.65240096674879        3.47533488566275
H           12.61519139868339       -4.73029197230812        3.30237357712146
C            6.85213173958847       -2.60224399326950        1.94937035867373
O            7.08578810870778       -1.41343812416366        2.15889717125977
N            7.50282231255730       -3.33517199563500        1.04939770658002
H            7.22656093781727       -4.29090685839910        0.85934205930366
C            8.55416484919336       -2.80079583050932        0.21555980835899
H            8.61705810008453       -1.72943705120338        0.39686275400256
C           -2.61740734871368       -7.25249998630963       -1.74782946170571
H           -1.98831395691738       -7.35487226346441       -0.86279224767575
C           -3.98086581825199       -7.91707088754050       -1.53550242566521
H           -4.57279391292903       -7.82703857099910       -2.44411655046756
H           -4.50183569011232       -7.42224643380580       -0.71536335042682
C           -3.79115281529104       -9.37647156162366       -1.17435701717329
O           -3.11609681513095       -9.72024440591331       -0.20434275746939
N           -4.39529640806028      -10.26855261156396       -1.95185701134492
H           -4.89352434723797       -9.99652017901533       -2.78153958275516
H           -4.27105645569428      -11.24977993108169       -1.74860191974431
C           -1.91062880137484       -7.86148609803606       -2.94009783721452
O           -2.51394864193338       -8.44916048251753       -3.83864731794938
N           -0.58290057744787       -7.71307557371913       -2.94240273239335
H           -0.11603798593401       -7.24465003968355       -2.17289498353051
C            0.29943750266275       -8.05517909692854       -4.03881387733451
H           -0.19093845282141       -7.79245384676736       -4.98527282242062
C            1.60044365882518       -7.24051401303537       -3.88568369413917
H            1.48153129141790       -6.25094316415395       -4.33098281205914
H            2.40620922992882       -7.77111249108984       -4.40815375281649
O            1.94423975132557       -7.00204164409513       -2.54335989278951
H            1.95566040079685       -7.84394367143701       -2.04427238264988
C            0.59566604657448       -9.57006544502352       -4.11619104993784
O            1.74920935094676      -10.00207251883558       -4.15410337198822
N           -0.48416551631807      -10.32970921186870       -4.18822434830615
H           -1.39489497198977       -9.87166083899403       -4.20834857211133
C           -0.46976505296878      -11.77858150264806       -4.21783753695260
H            0.47320826043034      -12.12680771445265       -3.79005140929066
C           -1.64311522781493      -12.34359048204529       -3.42530003530409
H           -1.73428846650010      -13.40704382332015       -3.65441812127288
H           -2.56277480290047      -11.85323237671617       -3.75899241437759
C           -1.48880484711401      -12.19189441507475       -1.94459467731497
C           -0.62463390199966      -11.40098710114914       -1.24550672464973
H            0.11184056294286      -10.70549623494084       -1.59620125973639
N           -0.78710803763778      -11.59080698279880        0.09791866149892
H           -0.27826020474035      -11.10532318334841        0.81531239245597
C           -1.77408210066905      -12.50310983022512        0.30340537444394
C           -2.24618699493810      -12.91396817453741       -0.96907179798679
C           -3.26620617353031      -13.86422065834862       -1.04470756725880
H           -3.64541604270514      -14.19254639315745       -2.00078114276996
C           -3.77169060031409      -14.38494726204897        0.12565554570039
H           -4.55514931552097      -15.12775401514212        0.08868550502596
C           -2.29517731773985      -13.02640537669390        1.48111818318420
H           -1.93249962893369      -12.70527434785686        2.44593890621898
C           -3.28965938516221      -13.97475288394566        1.37264126432565
H           -3.70185231687284      -14.41710556072549        2.26802208736943
C           10.76265168330047      -12.60080031844524        3.00242869585624
C           10.52382170811823      -13.72429830375854        2.01530484907828
H            9.53070382031514      -14.16335695368077        2.10501244396583
H           11.26649207994683      -14.51250811158532        2.12426874307074
S           10.74638340807412      -13.18160878636958        0.27044976214484
C            9.51020505345921       -9.12095541094835        6.78836348929887
H            8.46713636304995       -9.34964571614904        6.97608028773266
H            9.69874919097388       -9.22224506687874        5.72071740904511
C            9.82388725296399       -7.70528443643625        7.20842582739553
O           10.96481690488811       -7.33560356723083        7.48926873023034
N            8.76699767693253       -6.88705800193187        7.22208935413123
H            7.84470164946597       -7.26272672205138        7.02758776150888
C            8.86472275078841       -5.48592936713069        7.54516015483519
H            9.91911610690891       -5.24842055035985        7.67746057146862
H            8.32637359655505       -5.27073272000932        8.46715106522655
N            4.39066110360101       -9.46041096100084        7.44965148294193
C            4.44807935496819      -10.77490884774998        6.80654826701663
C            3.96924983702495      -10.70319547874313        5.43471522799866
C            3.55813513252350      -10.64606241736393        4.31202438155410
C            5.84492386062519      -11.39257889371605        6.88527735859244
H            6.56146107940083      -10.75316795354861        6.37856318939015
H            5.82973515211665      -12.37176073644266        6.41602190780694
H            6.13761934776239      -11.50110875134374        7.92653469533117
H            3.74300893993212      -11.40254387417049        7.36563146577778
C            5.21862579241848       -8.43506532916775        7.23991019902345
C            4.86918805578193       -7.18095549385924        8.06373448843541
N            6.04376044448467       -6.91472451827070        8.88126415837101
C            6.33106856420298       -7.88172529925956        9.90933863183392
C            5.46863662342929       -7.69047981174974       11.17493575877924
F            5.38641060895710       -6.40284632652214       11.55812328999881
F            4.19410522800109       -8.10313948068517       11.01355060631587
F            5.93779611998832       -8.36970383503780       12.23711012433135
C            7.79844303522863       -7.83639949551872       10.27906169646803
C            8.38038196890083       -6.67129176377300       10.76219058863419
C            9.73742753050708       -6.62493626915095       11.01745782249180
C           10.53681880811301       -7.74623074178959       10.81573061073061
C           11.98540171781183       -7.68705519202967       11.05408323167316
C           12.63886728550816       -8.72254085867641       11.72216502792680
C           14.00368571236650       -8.66420985738119       11.93744060033005
C           14.71035369143535       -7.56839767023800       11.48067373492723
C           14.08567311644150       -6.53282696774040       10.81115173596486
C           12.72050616803366       -6.59102648324703       10.60241627877923
H           12.22118784231186       -5.80668681162837       10.05703463099060
H           14.67418005312389       -5.69311656175802       10.47822122129155
S           16.48046335008491       -7.51059039821641       11.70068461481955
C           17.19235644506908       -8.12573334601177       10.16436639973379
H           16.86071258957198       -9.14765065569994       10.04328402077814
H           18.26925084722945       -8.07135308904536       10.25565647089813
H           16.83511327648401       -7.49021517825514        9.36570927005277
O           16.89692348012563       -6.12625842404675       11.88415522850846
O           16.86101308437360       -8.40988191502958       12.78250902102181
H           14.53261763000270       -9.44188636936784       12.46472218804091
H           12.07158268505967       -9.56358870213160       12.08815536612955
C            9.94147845270165       -8.92187944246111       10.36944124230318
C            8.58886052739130       -8.96205096091651       10.09456948723084
H            8.14383577179296       -9.87213799918260        9.72356744374444
H           10.54938672929532       -9.79667514007073       10.20246255993251
H           10.17981028448329       -5.71415622786842       11.38910640486754
H            7.77756775258754       -5.79390647606440       10.94163511454364
H            6.08315496124559       -8.88047908405852        9.53293936478488
H            6.04795594265040       -5.97037477626945        9.24440068411366
C            4.58874194908164       -6.01649273327308        7.10655896373150
C            3.69529197236009       -4.91082929802121        7.68626389170803
C            4.32822491006409       -4.12857670103546        8.83233253555441
H            5.31076143205181       -3.77307371155513        8.53962302244952
H            4.40145887652713       -4.74771576010366        9.72347860843724
H            3.70113131307244       -3.27509728092449        9.07899182703432
C            3.20925154249316       -3.97113289526997        6.58841998537908
H            2.87795537735880       -4.53952680729900        5.72275434955409
H            4.00690395916724       -3.29412245865805        6.30109529262876
H            2.36780386601984       -3.39089232760510        6.96104373509685
F            2.53939224759942       -5.53602279204600        8.21572625944897
H            4.08178128786780       -6.42932804125402        6.22991033201927
H            5.53642181790722       -5.58407333671946        6.78720968951169
H            3.96200089295199       -7.37980642058177        8.65519589495378
O            6.22988617617101       -8.46046352199201        6.54703900063525
H            3.48018351870562       -9.23876696551294        7.84180065615023
H            3.17524784484749      -10.61490719757041        3.33671541694816
H            1.15497572744439       -8.05665458719710        3.12335284465510
H            8.06694763849233       -7.47037202147974        2.05389270849781
C            8.48081527233925       -8.37797661717256        0.17353619520580
H            9.33926191483302       -8.88562878922280        0.63178935691484
H            8.81416860968683       -7.45204456753418       -0.30527926888844
O            7.85220775945725       -9.23842222030670       -0.75494621397276
C            6.47881698083787       -6.97529888267184        0.74773479302631
O            6.86298127556416       -6.06226716920110        0.01850993195689
N            5.20644604229816       -7.09291366296624        1.13251082576538
O            1.73379147052447       -8.68273111892641        7.76260039675725
N            5.36666363877579       -4.58379175637744        2.24994321217763
C            7.44590393746108       -4.58437086463637        4.19135025264378
C            7.29749897300873       -5.93596015818000        4.36943076526583
H           -2.27725792443202       -9.02262965666587        1.06310756352847
H            6.42285261491910       -6.50535911404232        4.62597808970369
N            8.49896143720564       -6.56420016789917        4.23053159815050
C           -0.14840418019958       -5.85236612287370        5.31146000604722
O           -1.08603017550763       -5.22876892762260        5.80031266155040
N            0.56421989020993       -5.39843265050570        4.27762689324504
H            1.32901830097440       -5.95755168013304        3.87691826022677
C            0.15512442344660       -4.20257746681022        3.56972908853009
H           -0.54942073155383       -3.68735293114443        4.23255076139967
C            1.33854319157090       -3.28980212010180        3.25685143318993
H            2.06441974907072       -3.79705141495576        2.62419999387523
H            1.83106104290222       -2.98759673128352        4.17668150959318
C           -0.57104456143784       -4.60344475077190        2.27507839914882
O           -0.36169886239034       -5.67079632574271        1.71356953030350
N           -1.42748464017847       -3.68326528739641        1.82378866652439
H           -1.59019871148617       -2.85142773486103        2.36855927426760
C           -2.24707790063850       -3.87326360688776        0.64645537774694
H           -1.76281896454510       -4.65261681998139        0.05462694825474
C           -3.73428854132567       -5.02042250725762        8.02065327923653
H           -4.09822733490504       -4.32114433165284        8.77428599056198
C           -4.71070931903504       -5.07436592349400        6.83236596290915
H           -5.69988381692746       -5.37861849382072        7.19283849110565
C           -4.81265511076254       -3.68609984210100        6.20667121657877
H           -3.83304994727671       -3.37577130052181        5.85061209341320
H           -5.16037741675697       -2.96330867172389        6.94026696335838
H           -5.50749038993106       -3.69053790452278        5.37251168989499
C           -4.24381330595605       -6.11962631621849        5.81231196532253
H           -3.92657342351059       -7.01703072142376        6.35231784549939
H           -3.36875859350098       -5.73515809084605        5.28456348116681
C           -5.34363105444131       -6.52173848237522        4.84036547384470
H           -6.15826514538941       -6.98633583774913        5.39327908504083
H           -4.96463521735973       -7.24564010915391        4.12511609689365
H           -5.72607964935496       -5.66025837036361        4.30108564817986
C           -3.55472075800978       -6.38285858868400        8.64629962935110
O           -2.46924845804324       -6.96113199223686        8.66186065485480
N           -4.65798310209802       -6.91570967955811        9.20467773609655
H           -5.54528834445499       -6.46512716534018        9.02539692803419
C           -4.75922345270747       -8.33940840666114        9.45675740084475
H           -3.74141197056572       -8.73396441197625        9.54345188016101
C           -5.52299875602306       -8.64837186099512       10.73821435313286
H           -3.16103930941564       -6.38471911263576        1.12761824723337
H           -6.59961618448322       -8.52978623202005       10.59867888129403
H           -5.20720285198225       -7.97326314261813       11.53604062432549
C           -5.27325059319931      -10.09730806626798       11.26157271782308
O           -5.90778590347195      -10.42334313997866       12.27997998206637
H           -4.73443966955075       -5.97701920263883        1.83426804962909
O           -4.46431488596264      -10.81658551308844       10.63854750308081
C           -5.45361398472209       -8.97808936780262        8.24421157309805
O           -6.25577309416321       -8.33515302937946        7.56797941987136
N           -5.07605316999853      -10.22431222706962        7.98230102368082
H           -4.54857148718854      -10.70100874480413        8.71095396943001
C           -5.53690403022135      -10.98090231087426        6.83536804905268
H           -6.22468639450664      -10.33433478885120        6.28454620054212
C           -4.35921797596253      -11.38136242483367        5.95544259672598
H           -3.68472376535047      -12.03164158050598        6.50521337203709
H           -3.96152010981472       -3.16766554252489        2.81094750241625
H           -3.81339412425246      -10.49449365628570        5.64426666117684
H           -4.72139034232065      -11.89832066923980        5.07239068317148
C           -4.39851319326354       -3.22989803012719        1.81681232447126
H           -5.44862477115018       -3.48625762030160        1.93127337425658
H           -4.33511190371149       -2.25435940559858        1.34114361753497
H           -8.39622011440287      -13.54131890342392        2.20642658006539
H           -9.41900285208027      -13.97892403112878        3.58090934401189
H            4.30458278025707       -9.63481057029229       -3.98321414386569
H            0.97054656369593       -8.49450067708429       10.20012394138486
H           -0.54140912864044       -7.66551337922836        9.74138577774035
H            8.32665965063855       -2.99014749789581       -0.83188739721168
H            9.50309514221168       -3.27098762714731        0.47648161394511
H           -2.75757203726978       -6.18827547510501       -1.94848661258511
H           -0.53439690388187      -12.11184209908519       -5.25899834257544
H           11.78592346177450      -12.24258125793408        2.92217422412589
H           10.59884696088298      -12.95864733481570        4.01581441936106
H           10.09811563311429      -11.75733730155255        2.81763379327313
H           10.16024905516115       -9.81065443652232        7.31713421785909
H            8.45927301092551       -4.88114339486274        6.73395877140758
H           -2.25298487639210       -2.94086153789545        0.07811710444839
H           -2.75703490539850       -4.69084797160088        7.66242031305405
H           -6.07563806589557      -11.86674278138093        7.18216767994808
