323
 energy: -516.031899297985 gnorm: 0.000378830296 xtb: 6.6.1 (8d0f1dd)
C            5.93726679459744      -11.02875532941134       -3.17275140425456
H            6.71796541545698      -10.35561769616252       -3.51363297843664
C            5.56829129801116      -10.72082851053720       -1.72761125466634
H            5.23828348841687       -9.68126625739469       -1.65713970478370
H            6.44827729528162      -10.83953565097121       -1.09545667794943
C            4.44612372931244      -11.65399512756054       -1.26084545318508
H            4.82482973589887      -12.67665818955588       -1.22169297547341
H            3.62716113535044      -11.61865314954436       -1.98415139634635
C            3.90746068863976      -11.28711286162724        0.09845315771957
O            2.72439233280938      -10.96719049979943        0.27320955020706
N            4.76836664335547      -11.31562941316297        1.11019913387159
H            4.42904659716280      -11.09037653522903        2.03658361113920
H            5.73158202592472      -11.60148974714251        0.97931393344542
C            9.64289229268413      -13.08498910201413        0.95841733011209
H            9.71092688020122      -13.94832328025527        1.61569112475502
C            8.63551175632565      -12.11243757795989        1.50109513035572
O            7.58116274509855      -11.84632841396249        0.92076553363919
N            8.95406342752386      -11.55669202033542        2.67822961707523
C            0.64747726963475       -9.75969299235926        9.29116559235358
H            1.57366407349190       -9.73540538615919        9.86781267926338
C            0.02570418242941      -11.16394586135676        9.41562443887503
H            0.21033158759271      -11.55960121895452       10.41219526120672
H            0.49398930890351      -11.82246700616263        8.68094626210329
C           -1.47055126771512      -11.12304998534751        9.15248212228891
O           -1.93242842789040      -10.79572570239731        8.05856142291311
N           -2.23508965610764      -11.47984923565059       10.18333599359860
H           -3.25429882311778      -11.42191774756451       10.14364346835647
H            9.85438297384166      -11.75249078900584        3.08689691688088
C            0.98529536151375       -9.47586010793194        7.84075769545263
O            1.98406478644349       -9.97301136319709        7.31160710459724
N            0.14037152119432       -8.67843508275440        7.19923150426263
H           -0.65435395708723       -8.29800235075918        7.70550133772694
C            0.19129693934856       -8.40688028422067        5.78246537611892
H            1.08707414295075       -8.88415321088570        5.37285283807579
C           -1.06258405014744       -9.00208976401157        5.11418189951353
H           -1.94940214806486       -8.50058499171224        5.50764449281134
H           -1.12324356119769      -10.04926305264050        5.43027550282475
C           -2.11322056315864       -8.86246658715830        2.75966445183905
H           -3.16627068596497       -8.85195953992949        2.94403140722368
C           -1.05128060166583       -8.91732545683107        3.62344986141199
N           -1.58343203908347       -8.84953946480700        1.50332213277812
H            9.23651559463632       -9.24133803987568       -1.73703763621413
N            0.11081644046276       -8.92833043355892        2.89874188171834
C           -0.25055355786895       -8.88704820781770        1.63806587302037
H            0.42014759842391       -8.87096275613267        0.80505126432006
H            5.57755890801292       -8.42297362597031        1.67170615157778
C            4.14012331865155       -7.38268368862741        0.53954771069478
H            3.85699983395206       -7.79644972870329       -0.43640006091557
H            0.84139180066566       -7.26460025449786        3.63550881359564
H            2.97285116792489       -8.96135071488137        1.44533648969730
H           -0.08642988964392       -4.63813788298613        4.52602763101774
S            3.80175322859688       -7.64931089740049        3.27586541753862
C            4.00953315561355       -5.86051552293610        0.40333624489804
O            3.35068059478493       -5.35424570502012       -0.49957854328359
H            1.93112573672161       -3.47349177408995        3.61432429767054
C            0.13411084598331       -5.16938895230468        2.42224055566845
C            4.58043887500128       -3.71155095416577        1.43740411705252
H            3.53156082322010       -3.38746823440374        1.47083116047669
C            5.29981745549334       -3.25925114563012        2.72605632991505
H            4.68148782124774       -3.52436331652943        3.58367682815888
H            5.40491068094595       -2.17490421288410        2.68004234305957
C           -2.71660277974673       -4.19945024399880        0.75875814143725
H           -3.06051531694350       -3.98826994058870       -0.25850286383850
C           -3.02823449052035       -5.65674633150200        1.08795877519603
H           -2.65528805530286       -5.91578900311810        2.07764612936706
H            8.59465469126310       -6.29153910062117        3.75688669042580
H           -4.10143913507196       -5.82887123684026        1.07262356368618
C            7.85002985331632       -3.55777730683936        2.21015402202755
C            8.23500619502641       -2.50095660288953        1.38467305184226
H            7.52771944985171       -1.73249535319671        1.10756520334109
C            9.53162222246272       -2.46571132306210        0.92381929355868
H            9.84696352915289       -1.65870732306019        0.27822593068474
C           10.10956363075960       -4.50346266790770        2.09559023921170
H           10.82319159204322       -5.26369334223101        2.37416740120254
C           10.45771972123383       -3.45507731602798        1.27281368441877
H           11.46415078138772       -3.38773201253987        0.88769437040594
C            5.17178733572955       -2.97178563004852        0.23247852105312
O            4.96726374242231       -1.76586997009645        0.11069191235471
N            5.89476719723754       -3.68096807407724       -0.63451953367843
H            6.05443779516317       -4.67629963116585       -0.51165833732740
C            6.44849898233910       -3.10198107044019       -1.83530943846794
H            6.65084905796210       -2.04182637255225       -1.63263519802474
C            7.73549736540600       -3.82584893558874       -2.21241433839600
H            7.53370229484243       -4.89057887938734       -2.30107190590987
H            8.49147947349588       -3.66496517759123       -1.44822164310355
H            8.08934143391808       -3.44936360183364       -3.16750247944147
C            5.47532158501224       -3.11278988026635       -3.02765272616567
O            5.83957100664688       -2.67664814792022       -4.11811867377107
N            4.24981257742309       -3.57493132854090       -2.79312896853939
H            4.01485604767610       -3.97086504088661       -1.88932667691464
C            3.22365434878358       -3.68324151604331       -3.80591491640706
H            3.68946367366032       -3.45685221188417       -4.76823564454545
C            2.60968493680565       -5.08768349974631       -3.79970833994016
H            1.71202384541360       -5.08986528698420       -4.41963502914968
H            2.32555844773871       -5.31826064741686       -2.77060295239722
C            3.58301725083802       -6.11082276433517       -4.31038315865992
C            4.61800690906109       -6.57044961050505       -3.50535489250667
H            4.70384345981078       -6.21969548879050       -2.48849792950267
C            5.54068176665120       -7.47821687238128       -3.99096131195980
H            6.33992003516313       -7.81234010226657       -3.34611056834677
C            5.43626918900160       -7.95091672119415       -5.28764295198475
H            6.15283236356418       -8.66263817877478       -5.66876379211316
C            3.48456596172042       -6.59295144293263       -5.60932097922919
H            2.67482146854367       -6.25238280466024       -6.23925867090866
C            4.40126017806928       -7.50990539438773       -6.09396968271365
H            4.30781171136689       -7.87877971977794       -7.10470261064631
C           -2.01131685691471       -6.57673527991358       -3.29922072270423
H           -1.81480295101606       -6.27376609895152       -2.26905075612849
C           -3.16220210848323       -7.58979596731626       -3.31638922099186
H           -3.18527765618980       -8.11671103181629       -4.27086959131802
H           -4.10460190734957       -7.04820439006399       -3.21052173268082
C           -3.09938059613824       -8.59249057717963       -2.17637225261725
O           -2.31767705534634       -8.48125959494766       -1.23393284528526
N           -3.97192676317070       -9.59679332030214       -2.26001909953237
H           -4.62953071431528       -9.66179675060052       -3.01799588833096
H           -3.98316854452999      -10.30626426897736       -1.53834918849397
C           -0.73111832494595       -7.13896880080088       -3.89136078447421
O           -0.26785712139950       -6.74438099603930       -4.95601304508066
N           -0.18422132667851       -8.13975358631450       -3.18045824596822
H           -0.52671929107677       -8.31737716594707       -2.23973203003535
C            1.10074591244381       -8.72085938987744       -3.48140424405122
H            1.52931224243825       -8.19606031524564       -4.34416680602810
C            2.03340180863466       -8.53811506095657       -2.26986723006236
H            2.22297173895658       -7.46861536738532       -2.13265829671872
H            2.97716838350630       -9.04441614258760       -2.48506263584713
O            1.41770538018275       -9.01544595048753       -1.09838710715774
H            1.84468510063274       -9.83880102796511       -0.78627563191400
C            1.01111361454809      -10.21285210033383       -3.82734406544590
O            2.01701091919066      -10.91697124055001       -3.83881790022140
N           -0.21077866016901      -10.65496905442502       -4.11788880596583
H           -0.97416151133519       -9.99882727284672       -4.03393124095878
C           -0.55406702485293      -12.04492512440813       -4.32723923658871
H            0.36316345697086      -12.62292680030516       -4.20465906652495
C           -1.62898121227561      -12.49826219904981       -3.33798037443803
H           -1.83551792348504      -13.55650723376014       -3.51697826784938
H           -2.55151729726878      -11.94566534814895       -3.53100754982610
C           -1.23471797569451      -12.29154987931330       -1.90865419327771
C            0.01526089277617      -12.09037237865994       -1.39738119276467
H            0.96225727044694      -12.05423341612641       -1.89838978250688
N           -0.03881898535589      -11.93871306920260       -0.04269337091127
H            0.75531308365191      -11.68642657695915        0.52419829123423
C           -1.33436749125303      -12.02343991084634        0.35888866606542
C           -2.12754990237123      -12.25978768342983       -0.79443738496910
C           -3.50811229340298      -12.41818029662389       -0.65368661988646
H           -4.12664980768592      -12.64121463323794       -1.51078150405742
C           -4.05948178926651      -12.32880542310999        0.60621851653023
H           -5.12486460105454      -12.45137921353745        0.73772312359618
C           -1.89903660720919      -11.94708612864300        1.62645273423345
H           -1.28621168611996      -11.77479806132415        2.49904084427350
C           -3.26496996188056      -12.09450447344682        1.73274916250678
H           -3.73028237881786      -12.03803880393826        2.70559128077717
C            8.74670791134696       -7.39786151108828        6.89289794761083
H            9.54306448787642       -7.86584689075547        7.46282674270143
H            7.77936393996824       -7.72141972812015        7.26243647161241
C            8.86223517121533       -5.89911254505924        6.99622802036243
O            9.90532691366823       -5.32710512429107        7.31565002353027
N            7.75052057674807       -5.23969993869871        6.64870712900084
H            6.89915508964689       -5.76695562961379        6.47032230473340
C            7.67459939266806       -3.80356181319974        6.62092450132973
H            7.36881397548513       -3.47132434797692        5.62305274023925
H            8.68102878726357       -3.42824799671418        6.83617262140632
C            6.70833693136462       -3.23548663973476        7.65694815636193
O            6.17967974885840       -3.91929611514298        8.52762748487939
N            6.48352217541378       -1.92395712710316        7.52105564613093
H            6.96682691773011       -1.41205302825607        6.79908977001220
C            5.61700574000642       -1.17021768124601        8.39976150718617
H            5.16784112697936       -1.86534086161177        9.10790804330688
N            4.40866273670151       -8.85629113021892        6.29298117619529
N            5.39659900091525       -6.78489723695691        8.73198690981075
C            2.90583989472397      -10.22415417329495        3.68327158090214
C            3.79223320088835       -9.28402820571936        3.98085728686667
C            4.84653268466714       -9.45464092846647        5.04377974515582
C            4.20315533459666       -7.07975082341314        7.95414768340161
C            3.37469735548572       -5.82859164912626        7.64133515968545
C            2.56456944815265       -5.21309492577192        8.78704046399863
C            1.99758213588877       -3.86647973646731        8.35180107899812
C            1.45775358285405       -6.11847845598891        9.30444707357886
C            5.80372423684852       -7.65660657918774        9.78443763111792
C            5.07889446710428       -7.43524968669813       11.13464007463980
C            7.89011281953368       -6.27835354799317       10.12330100742629
C            9.25651232906147       -6.17060241936803       10.29000547856956
C           10.05039010568196       -7.30830824475228       10.40551172791800
C            8.07472109763346       -8.66809906377398       10.19669500435208
C           11.51054976688946       -7.17550573468370       10.51710841564562
C           14.24550447813237       -6.88310569164989       10.71124908919904
C           16.69255878744230       -7.91433773515953        9.63432705633227
C            4.73474116873271       -7.60368632198150        6.60972459768277
C            7.29277858646499       -7.53047338048980       10.04631308340979
C            9.44017628288560       -8.55896630416742       10.38351603211559
C           12.22729502040300       -7.90240249200996       11.46673010684244
C           13.59894412420393       -7.75450460527776       11.56706673552013
C           12.18462073402808       -6.30675714956836        9.65676909931684
C           13.55669032823186       -6.16392150200532        9.75211689432402
O            5.48782063149685       -6.91773119414559        5.92378381606768
O           16.40688238698361       -5.38380461835406       10.38026845115471
O           16.46519168191953       -7.08958275537381       12.14554536801005
F            5.23116859835490       -6.21065234280308       11.64872986777022
F            3.75149510009608       -7.66829735534019       11.06690231452931
F            5.53053160104980       -8.29245449182288       12.08237067438489
F            3.44292565877832       -4.96196719127506        9.86855330338911
S           16.02046857603560       -6.72209471615476       10.80710524416187
H            5.02638364482265      -10.51429834294002        5.22694223573753
H            5.77013555947081       -8.94325921685603        4.76029742537660
H            3.58211270269665       -7.84467436767772        8.43359850779439
H            2.66159168445908       -6.07931334156699        6.85410527617515
H            4.07167516566064       -5.07814779130399        7.26090754999115
H            1.27295284832680       -4.03578270241392        7.56156652311461
H            2.79426753795672       -3.21934225869529        7.99498073729353
H            1.50314459643600       -3.38760161657087        9.19242568406361
H            0.95504774041500       -5.64317236791526       10.14290963557523
H            1.85146843245890       -7.07034039258578        9.64562615944653
H            0.73449551922878       -6.29330152983560        8.51414966969907
H            5.56311584311618       -8.69071043909164        9.50489279053362
H            7.29302863236777       -5.38539122069046       10.02947441334594
H            9.71361518403429       -5.19457764807903       10.33194095429808
H            7.61387559225083       -9.64317808877379       10.15646515634453
H           16.37580962355640       -8.89639454924353        9.95723331104472
H           17.77076078544335       -7.82417262810493        9.65613915376854
H           16.29885509589376       -7.66286390596502        8.65921601244679
H            3.63900156007329       -9.32096638099489        6.76783705118853
H            5.51447812521522       -5.80051450631487        8.93461085965462
H           10.04234761917494       -9.44909328123757       10.47570865821716
H           11.70363684862036       -8.56436017832244       12.13812508171115
H           14.17757838747933       -8.28435741022446       12.30662192818787
H           11.62740322016448       -5.77030239161661        8.90232728723681
H           14.10184715154141       -5.49187698458689        9.10898891321030
H            2.95168244778635      -11.18347848678164        4.17113321169443
H            2.08531929967523      -10.06496480940401        3.00496100817793
C            8.08492920596684      -10.63669510415528        3.38465479760144
H            8.33800401067487      -10.64700075370238        4.44398063745540
H            7.04902596013743      -10.95865974267011        3.24633013221730
C            8.22113862115858       -9.20245348549123        2.86397158594754
O            8.68620840109006       -8.30292184521162        3.55044081029051
N            7.75633446084418       -9.04134835672857        1.61729671546767
H            7.50640930570147       -9.86993656633760        1.08113018084937
C            7.90692126108547       -7.82425059231770        0.85782901882081
H            8.27398105822434       -7.04066509853096        1.53120979374359
C            8.93864146845630       -8.00007816353347       -0.26625059483847
H            9.93270419654852       -8.12389939180084        0.18195800497376
H            8.92969204797969       -7.09022209377557       -0.87795750482067
O            8.59223068529504       -9.13674868206998       -1.02614417132076
C            6.57828382099406       -7.31789281962519        0.28925901761563
O            6.54516301101262       -6.48629296171457       -0.61126449465711
N            5.48432027413009       -7.79529276356439        0.88233326739411
C            3.14793426063782       -7.89862172862807        1.58430369808715
H           -1.82755352732042      -11.70232275038404       11.07508338779711
H            2.19957964365880       -7.37208357118819        1.48578255864565
N            4.62788642331193       -5.15173561981774        1.34821996268785
H            5.18289541903429       -5.61853688357023        2.05875035353317
C            6.62801072333587       -3.92632370999408        2.84931688887707
C            6.87845109250092       -5.09054868144441        3.53010423940222
H           -2.07179009487730       -8.80357563699211        0.61683254400560
H            6.22276458836246       -5.67318356307467        4.15003282148439
N            8.18146775384713       -5.45595377572737        3.36844307094714
C            8.80182383023370       -4.54802073230051        2.56473331868735
C            0.24422887179063       -6.89944348333444        5.54611379206574
O           -0.08774625058753       -6.08416353938583        6.40408789119903
N            0.67788044053005       -6.54085633780038        4.33767828832697
C            0.61862796629663       -5.16907155671437        3.87631920338472
C            1.99587130914086       -4.50472019642346        3.94840973443684
H            2.69054473182009       -5.04909494885711        3.31537204337618
H            2.35858566864583       -4.52874749631866        4.97246377110000
O            0.46044393335790       -6.05913378777697        1.64652542412606
N           -0.61698187432215       -4.12027474894080        2.08262777321183
H           -0.86577075849604       -3.43953600627596        2.78340346449364
C           -1.19990253917285       -3.94773510285564        0.76974439954117
H           -0.69809342907758       -4.65727788015389        0.10782369308645
C           -2.78059400712832       -5.42371903047896        8.29958643993294
H           -2.95207359260270       -4.74565336819892        9.13717482087735
C           -3.74777793846483       -5.09274611410125        7.15105341883150
H           -4.78167971158163       -5.18696925833636        7.50244405492185
C           -3.50924434005924       -3.65043785031001        6.70932312419383
H           -4.20522917327626       -3.36434750943391        5.92692893448858
H           -2.49245033484972       -3.54389920132631        6.33981341197076
H           -3.64324911355856       -2.97414063707299        7.54921925484710
C           -3.54216815449521       -6.08499124214532        6.00026576542038
H           -3.56792372743727       -7.09922332567604        6.41366606639957
H           -2.54604215636473       -5.93255666493584        5.57834205057838
C           -4.59772663926589       -5.98353446876550        4.90600984629237
H           -4.39191281904569       -6.71085098593759        4.12409091788527
H           -4.60746906716191       -4.99527752897966        4.45666147370264
H           -5.58379242083248       -6.19115831029446        5.31735895385999
C           -2.90069238642538       -6.84212862140993        8.80525958516913
O           -1.93094924038933       -7.59666102066628        8.88285921734462
N           -4.12315561929001       -7.22400798656039        9.20346803801213
H           -4.91276334760496       -6.60670939700555        9.08450686211788
C           -4.44585528680549       -8.60423415427922        9.50228714207786
H           -3.50168181090862       -9.14745419730627        9.57389258047024
C           -5.24016885140008       -8.73628942531901       10.79317103439708
H           -2.55710307132736       -6.32417738207406        0.36988651322438
H           -6.17216181989708       -8.17189442338714       10.72521896522561
H           -4.66664865891928       -8.37019960131998       11.64638083022577
C           -5.63168708929018      -10.21560512844311       11.07432184773239
O           -6.51632848743502      -10.40579201133757       11.92598105817099
O           -5.03094207146749      -11.10782418233625       10.43592193850513
C           -5.28810136522196       -9.16067633888417        8.34625832493687
O           -6.43243912809072       -8.74380964139189        8.15493383016009
N           -4.67800043974167      -10.03784589387425        7.55860750485306
H           -3.72313634142597      -10.33681664247770        7.76573306204598
C           -5.34671867503074      -10.69381158814459        6.45309907860534
H           -6.39436181833739      -10.38483927797169        6.48974581440634
C           -4.71366681494563      -10.30784453907006        5.12273490528385
H           -5.23637902367677      -10.80586558886412        4.31193803914077
H           -3.66592335800994      -10.59661249019475        5.11088289068851
H           -4.78207044849099       -9.23215422270479        4.98136302146708
C           -3.44094490953575       -3.26090526169483        1.72290031752234
H           -3.16621044571553       -2.22641098040664        1.53370453047885
H           -3.20051217584115       -3.50962030492975        2.75404898038620
H           -4.51631670262864       -3.35774726266116        1.59876038643360
H            6.29266167571645      -12.05195003424915       -3.26499275469550
H            5.06968355764399      -10.90482856761038       -3.81917622470089
H            9.33023320912663      -13.41336901815807       -0.02824153740688
H           10.62219250122757      -12.61969904934761        0.89193070894857
H           -0.03880532852486       -9.00439488942130        9.67183985370220
H            2.44319147333158       -2.94263576674159       -3.60382578213602
H           -2.28256505862825       -5.69996958860366       -3.88609328027603
H           -0.91699447584836      -12.17464959814832       -5.35087914332988
H            8.83795081278476       -7.68562663156587        5.84663953177739
H            4.83323432091199       -0.67976466565238        7.82356286053873
H            6.18613344138586       -0.42056757799643        8.94865529603754
H           -0.99038402162173       -2.93158287739377        0.42717720225844
H           -1.75309720079983       -5.29911116225434        7.95131050503338
H           -5.28731335063074      -11.77419797335333        6.60853078326340
