341
 energy: -538.241231678848 gnorm: 0.000521565797 xtb: 6.6.1 (8d0f1dd)
C           -9.35646774799882      -10.88947002355187        3.91502173708558
H           -9.72026374512515       -9.87381732199134        3.78391622514514
C           -7.93186586899214      -10.88266839809249        4.47081228272398
H           -7.59520271223758      -11.91216258223211        4.60964050574526
H           -7.91450816352802      -10.39121129714647        5.44713689901027
C           -6.98595169772874      -10.16193378946792        3.55291410098783
C           -7.07448633982246       -8.78320178416417        3.39984647734685
H           -7.80924059374682       -8.23299015535877        3.96944692492233
C           -6.22495257549000       -8.10999046562100        2.54188964139871
H           -6.30933468994378       -7.03865373094172        2.43296930287555
C           -5.26029803783002       -8.80733422683049        1.83479012048182
H           -4.58461658768785       -8.28698482956905        1.17168048324721
C           -6.01844722136766      -10.84889962663520        2.83226488429120
H           -5.93464189822641      -11.92067347426391        2.93968585541388
C           -5.15321693846641      -10.17804649385582        1.98600653166184
H           -4.39081483274984      -10.72425735548207        1.45006977863343
C            5.58482642193109      -10.60513698995995       -3.74738650016325
H            6.25567777403384       -9.83323327001631       -4.11362393259076
C            5.18926173730579      -10.32490908761961       -2.30323260601193
H            4.75842079400821       -9.32401058564980       -2.23731146221854
H            6.07543902457676      -10.35320421073892       -1.66947374086248
C            4.16613344994402      -11.36408040528550       -1.82334654086552
H            4.65641326102524      -12.33085864646942       -1.71653983277886
H            3.37299543141003      -11.44197223529163       -2.56839041292693
C            3.55572450272872      -10.95271098066944       -0.51051916986255
O            2.47169860826599      -10.35830425811873       -0.43940697535405
N            4.27813520063282      -11.23585350090277        0.57128998074938
H            3.92611814852301      -11.00600116430750        1.48915375471852
H            5.15260598947851      -11.74134763695361        0.47780575185045
C            8.67561753189501      -13.98361946445396        0.14124676300000
H            8.60973938295631      -14.91596455193041        0.69608739765905
C            7.84779437899676      -12.92690554055099        0.81492101456400
O            6.88560521152517      -12.38175022625764        0.27172501156070
N            8.22593889194104      -12.61459640948280        2.06221659194653
C           -0.32810583989312       -7.09844283615160       10.02218769365794
H            0.43852343654475       -6.71084395240295       10.68686990873375
H            9.05395243378057      -13.04181070658025        2.44675338716087
C            7.52452436949837      -11.65206857914000        2.88827181841214
H            7.74316519369020      -11.85404014035796        3.93595502415142
H            6.44984153403025      -11.74927080604745        2.71034711983355
C            7.93886342531311      -10.21195293096809        2.57650244851161
O            8.55063723203601       -9.52236300566633        3.38123081088306
N            7.54967803339090       -9.78467674737301        1.36709287415550
H            7.17528709979193      -10.46036175234202        0.70374109795593
C            0.27166760438966       -7.42180076169825        8.68277657530846
O            1.41719993031184       -7.86642834978228        8.57371029180837
N           -0.51195198999693       -7.17156000880536        7.63068779927310
H           -1.44846596376399       -6.81056963648447        7.80411393808432
C           -0.18999308775713       -7.47359064466158        6.24673003655351
H            0.84958258724196       -7.80294193255798        6.19723771838901
C           -1.11340550580649       -8.57431984888355        5.71280363036000
H           -2.14680700412196       -8.22401711761873        5.78301305173726
H           -0.99993214132420       -9.45220752015516        6.35834909178615
C           -1.81032926317276       -9.03304910108871        3.29929002351926
H           -2.86808288862596       -8.87146932169768        3.33354326468722
C           -0.86299068576126       -8.92578856189628        4.28511614645851
N           -1.15240330920221       -9.40800780991255        2.16712298990211
H            8.88344210396642       -9.64624787818632       -2.02308245430094
N            0.36375319889567       -9.22837433460549        3.76346628109921
C            0.14713452691389       -9.50720855984963        2.49976427951694
H            0.91147263195212       -9.78782737376521        1.80405462112316
C           -0.38127232345997       -6.16389142154919        5.47520178931947
O           -1.48853291636674       -5.77452098817917        5.11658065502088
H            3.94124523679321       -7.37474887717601       -0.39733079571400
H            1.64642789312578       -5.88647940739736        5.34073746589019
H            2.63829314249451       -8.69622019220275        0.91224605645580
H           -0.23525290940981       -3.64763878934887        4.98321574412295
C            1.90259809401794       -3.32166995069960        4.89417532768871
H            2.79384830752139       -3.88674550194248        4.63612708484784
H            1.94800204680728       -3.04962219003121        5.94386319001958
H            1.87553221449877       -2.41115270109551        4.30037112139722
H            5.50024280783117       -6.32970555912820        2.67652699901647
C            5.21141686932668       -4.25308085360620        2.67140820718426
H            4.21598141159710       -3.81978583640882        2.83726916041198
C            5.96739135808325       -4.33777164629935        4.01139365526263
H            5.35239072945135       -4.90038648765572        4.71846993014330
H            6.10050688652064       -3.32314313146247        4.38805434411809
C           -2.20434441639379       -4.76589749490401        1.05290147458013
H           -2.41067601247447       -4.88124374498634       -0.01532722738176
C           -2.04195352150906       -6.14758726275736        1.67851358975498
H           -1.92230345334878       -6.07554012692726        2.75970680344945
H           -1.16565117767791       -6.65675506009305        1.28241102114591
H           -2.91504944424542       -6.76425495129325        1.48490290821920
C            8.52042772586631       -4.43439077212098        3.44351363940269
C            8.92648331112865       -3.12955122915013        3.16101337754500
H            8.22155514336185       -2.31145278844548        3.20935802784976
C           10.24003159203246       -2.91191790534143        2.81216846338166
H           10.57254052501602       -1.90972930931040        2.58493443179031
C           10.78914511587714       -5.26131644320659        3.02295395018301
H           11.50083387775850       -6.07089093645115        2.98240445632715
C           11.16015665967922       -3.96414279180272        2.74388053863405
H           12.18092340073614       -3.74709388348229        2.46837636548638
C            5.92650495720390       -3.27742069991274        1.72994189556439
O            5.71589972458704       -2.07088230709780        1.82571116575887
N            6.78977508575842       -3.80759867225849        0.86361555683206
H            6.88094920378980       -4.81408069308817        0.75722508769808
C            7.53857597486868       -3.01347597289639       -0.08261147128816
H            7.84405207874699       -2.08339234186931        0.41200670063842
C            8.75960273702944       -3.79889992444357       -0.54888921426025
H            8.43365010257366       -4.74718601556569       -0.96830122371370
H            9.42429232490749       -3.98097927729380        0.29122472470035
H            9.28345623436468       -3.22974970896851       -1.31067476514026
C            6.71371400087627       -2.58599886038679       -1.30514460233655
O            7.11696143292843       -1.69677338295047       -2.04754049262333
N            5.58744733304406       -3.27203132110973       -1.51571945325069
H            5.28110745941455       -3.95233991655344       -0.82954171971359
C            4.62613504966290       -2.92039434846445       -2.53738501840618
H            5.16786981775100       -2.39783344405467       -3.33357886597550
C            3.92804239698905       -4.17893413279341       -3.07557266845916
H            3.16516719688978       -3.86065622156124       -3.78751192395000
H            3.44811038703430       -4.69028115763744       -2.23955643114442
C            4.91367265863270       -5.10150780845041       -3.73608050897016
C            5.58254408184613       -6.06034007316357       -2.98697546104298
H            5.38590921192915       -6.14163965230776       -1.92984288584488
C            6.50248434598646       -6.90547488221190       -3.57977641326173
H            7.00591579364221       -7.64444378990421       -2.97509876804482
C            6.76563063253068       -6.80160967040584       -4.93497215496431
H            7.48000973803736       -7.45999792631330       -5.40555873574141
C            5.18823521283736       -5.00007282798850       -5.09360835992335
H            4.67787935673044       -4.25314220449605       -5.68454004659200
C            6.10765872491687       -5.84531237741719       -5.69002522079819
H            6.31029504547691       -5.75650564793007       -6.74675743798230
C            3.59705742404802       -1.93706855971852       -1.96066017145972
O            3.35950285508684       -0.85649196705666       -2.48888857126582
N            2.97823872955154       -2.37428397268015       -0.86050484584914
H            3.23534244826234       -3.26817709607841       -0.45981429340461
C            2.08713401229752       -1.55355006849356       -0.07360904197305
H            1.04663988911601       -1.80511305099438       -0.31510503053905
C            2.34203882094091       -1.79476004015302        1.41560019339049
H            3.37676023440132       -1.54356337605417        1.66596209846242
H            2.17950683106430       -2.86131649173787        1.63073166716038
O            1.53054363257695       -1.00097579358331        2.24788006785578
H            0.61883644359956       -1.03517940661265        1.92497595911024
C           -2.04145740918262       -7.06649244385341       -2.04525581311255
H           -1.46168166497762       -7.12541794362434       -1.12525545281599
C           -3.41944294600593       -7.69183579804286       -1.83516795853989
H           -3.93521076452657       -7.76107306290499       -2.79240003486589
H           -4.00914522297722       -7.07187814428046       -1.15737863511897
C           -3.29002096396906       -9.07375383947793       -1.21480701237779
O           -2.37484819440252       -9.36501144058326       -0.44932862020140
N           -4.24951757234256       -9.93815997447193       -1.54697332724596
H           -4.99462606792856       -9.68287784308546       -2.17116850653444
H           -4.21924127074663      -10.88045243817226       -1.18100769201959
C           -1.31145591110545       -7.77167549503061       -3.16944351866614
O           -1.88981614264774       -8.14045323089813       -4.19381343130325
N           -0.00298893856935       -7.94245699302343       -2.97752903740676
H            0.42597921054925       -7.68422366615502       -2.09528417108950
C            0.95731214135665       -8.41848773581343       -3.95217739861908
H            0.73760340985756       -7.96469152614970       -4.92634416341203
C            2.35390041868284       -7.97827837517063       -3.46906463522823
H            2.52582090457430       -6.92968150737109       -3.71998412001874
H            3.10948918683272       -8.59131076465743       -3.97097997972319
O            2.47892884921714       -8.05647768942030       -2.07038409511515
H            2.40285537417059       -8.98689337351055       -1.77540111025124
C            0.90225997272075       -9.94923803823237       -4.15470442749933
O            1.90006171648655      -10.65314266756535       -4.02619752522618
N           -0.29024648195427      -10.40636263664723       -4.51798742306132
H           -1.05603644387759       -9.74060601946406       -4.61146785864467
C           -0.59547683572372      -11.81153219185767       -4.68374672605424
H            0.31178935468443      -12.37315134626117       -4.45276509336333
C           -1.74948700248409      -12.24568950845216       -3.78206555603348
H           -2.03759164709744      -13.26315163260225       -4.05741791690196
H           -2.60913049590633      -11.59599127881685       -3.97473654756127
C           -1.42970359077449      -12.20854750480838       -2.32036128038322
C           -0.29019920190840      -11.79431809638248       -1.69583870735422
H            0.63009081343920      -11.42582859912155       -2.10100463954289
N           -0.41334106732847      -11.92142988378528       -0.34119175590366
H            0.27687590882221      -11.60532518361655        0.31806873561189
C           -1.65023135499902      -12.40426018455261       -0.05090683809041
C           -2.32311761143923      -12.61632687636908       -1.28193869945955
C           -3.62040840763618      -13.13336950170132       -1.27343704294209
H           -4.14686124910886      -13.30861480657149       -2.19977275713765
C           -4.20613873273126      -13.42885667001031       -0.06113576117007
H           -5.20771920837288      -13.83162779368484       -0.03141876204447
C           -2.24994335589996      -12.69848839165517        1.16773867379534
H           -1.73485216268248      -12.52356221588153        2.10101665761252
C           -3.52856813248951      -13.21428602957744        1.14294954662595
H           -4.02147864118687      -13.45813515633746        2.07219916424652
C            8.50155187834787       -8.74836102681462        6.66185095959372
H            7.44115365182250       -8.58559345356497        6.82299655055602
H            8.65732509133854       -9.06599318222404        5.63210725434478
C            9.28378936022734       -7.48119536609242        6.90821538428509
O           10.50129158725739       -7.47895541014330        7.08404210078905
N            8.54518342040007       -6.36442515736533        6.91365902582260
H            7.55523926409690       -6.43351307546007        6.70853936160129
C            9.11141927856954       -5.04280500491796        7.03703283707534
H            8.85531855645204       -4.43884649452686        6.16608437420981
H           10.19325602770251       -5.14901418737313        7.09587727430261
N            3.03220413667524       -6.66129711194779        4.42154964430639
N            3.57667781648355       -7.75412631618134        6.83129325115685
N            5.56705392298105       -5.93205794948340        9.17211686478450
C            3.40235421483357       -7.86185928279211        4.40388094152690
C            3.59524612133799       -8.59611880050896        5.67233363980438
C            4.34434499985456       -6.08022858286864        8.40147874325793
C            3.85955176419136       -4.72314345453754        7.87720765061975
C            3.40403899491718       -3.72405268579090        8.94725954537287
C            2.30956447114616       -4.27195542001399        9.84995976496671
C            4.55215210597120       -3.11522403740518        9.73385333075343
C            5.95846357002383       -7.09965320099012        9.93807230001252
C            5.35645952504237       -6.98543406596605       11.34587986578086
C            8.22054565675855       -6.05994005891669       10.29490400636994
C            9.59454356218406       -6.15102330432708       10.40072761155703
C           10.23313151900299       -7.38591152316649       10.32262944986442
C            8.08652390927042       -8.44004437695395       10.03072984786157
C           11.69753944034882       -7.47689816960217       10.39781649773073
C           14.45172483586279       -7.64594952353168       10.50757045755943
C           16.66666422531268       -8.66243647967682        9.00682508882003
C            4.58873700529399       -6.95537546435215        7.16317215836026
C            7.45923815613404       -7.20359803349790       10.08803556115829
C            9.45967412653678       -8.53075727113303       10.15441599348720
C           12.48724784759247       -6.55624410122952        9.70871874350068
C           13.86562915702024       -6.64305923409302        9.75816678290919
C           12.31218533636919       -8.48142053196004       11.14529540370791
C           13.69140425814438       -8.56706135643591       11.20183257153334
C            4.42804923564650       -9.85607755458516        5.73394965881836
C            2.94395671151637       -9.95138029218103        5.82305278790831
O            5.64891533655746       -6.90253492695742        6.54458824654825
O           16.81831747427896       -6.45299582301578       10.46837474305578
O           16.64435877670092       -8.59190186686292       11.65994845958535
F            5.71125214871497       -5.86116389752862       11.98172386358609
F            4.00947676302070       -7.00520733041963       11.36159846106933
F            5.74115545250732       -8.00426795825387       12.13946003458485
F            2.81090709366276       -2.65871400825933        8.20962739538999
S           16.23073179518014       -7.78528245352525       10.51896820715743
H            3.56903642425336       -6.53943751574671        9.01767640347571
H            3.00984022092747       -4.90738234794645        7.21600780909885
H            4.65630005825807       -4.26308017157752        7.28843495493318
H            2.72386081985304       -4.99150523062965       10.54718323724079
H            1.53229330345995       -4.75400211238603        9.26064024008068
H            1.86191503966419       -3.45680760878718       10.41268471788840
H            4.16886992652509       -2.36572136186193       10.42080569035359
H            5.25527130897538       -2.64211212642656        9.05443074168459
H            5.05710136126054       -3.89582315113191       10.29061439135647
H            5.55441630689093       -8.04166381345661        9.52918666838924
H            7.73040269478478       -5.10213564813343       10.37240564152360
H           10.17763863681204       -5.25826089193108       10.56179725080242
H            7.49693769459103       -9.33264853578975        9.88530216020175
H           16.27160268606064       -8.09165427873041        8.17773457689316
H           16.22030935503822       -9.64536486456194        9.06663388557325
H           17.74606512392894       -8.72396271548764        8.96087835465282
H            2.74509165549954       -7.78021019987297        7.42300156409996
H            6.31617970390166       -5.68260476916346        8.52998768179383
H            9.94080370313335       -9.49335167880375       10.08442737206326
H           12.01416768837350       -5.79753305347177        9.10725709824227
H           14.49614283849114       -5.93906254782817        9.23941647733581
H           11.70698270799479       -9.18364098162989       11.69647824208605
H           14.19330746804196       -9.32393834298503       11.78312005620378
H            2.37254131740622      -10.31467277115721        4.98320895956879
H            2.48820620083534      -10.14952395885188        6.78189445066885
H            5.00056704846346       -9.99761956277221        6.63685962765439
H            4.92353449368042      -10.17814558396278        4.83233918407255
H            2.85302513889548       -6.19421028813991        3.53645012432320
C            7.91434265617916       -8.49185685229298        0.84568746083510
H            8.45800011339310       -7.95191565961371        1.63100618223089
C            8.85341405238286       -8.62307716508427       -0.36390935432930
H            9.80891667325189       -9.03769441134521       -0.02139999555307
H            9.02221088663885       -7.62023141341607       -0.77567954610243
O            8.25232193483615       -9.47398893933777       -1.31326635967070
C            6.71575779782493       -7.60725149649658        0.50109437858361
O            6.89255895182528       -6.48724164610283        0.03209326125256
N            5.51175103234671       -8.08420866737164        0.81399681493563
H            5.41742272757889       -9.04108201012871        1.13400183515268
C            4.28141966648528       -7.33738075576556        0.64866607395397
C            3.15899482695106       -7.94631560795319        1.50871588096335
H            2.43674391728222       -7.19086168922134        1.81854080957114
S            3.74437419911053       -8.85513983923206        2.97763206450204
C            4.44821285944794       -5.85655609888519        0.99055099846592
O            3.97621313973564       -4.98537570321560        0.26261346911299
N            5.06622720459035       -5.58902822951841        2.13876307236235
C            7.28126814403161       -5.02274416953326        3.84139734269380
C            7.51784558082862       -6.36357184667659        3.98342714719493
H           -1.56492236066638       -9.52901856940898        1.24750631847161
H            6.85349827319768       -7.13733753985368        4.31933366728354
N            8.82076776942377       -6.64623913991011        3.69894644588649
H            9.22952727695466       -7.56457511254378        3.78691711823739
C            9.46457004834344       -5.49069918321374        3.37560578018104
N            0.72790100776555       -5.43010768394045        5.32492825404963
C            0.66141577425316       -4.15978009711966        4.62032417849704
C            0.51356848592048       -4.43410370154169        3.11747329493496
O            1.28859519035286       -5.17938441825705        2.51750217357550
N           -0.48171739043198       -3.77212339094576        2.53104366811628
H           -1.12379753515645       -3.26179390657345        3.11829118102463
C           -0.89500575902445       -3.96857265694823        1.15960040361889
H           -0.08707264288491       -4.50531444221420        0.65761726806412
C           -5.41156496755072       -5.33601555992484        8.11819458502681
H           -5.93925219790951       -5.33161807840520        9.07465313385921
C           -6.43496059035991       -5.52677109590796        6.98591315787799
H           -6.81501249404385       -6.55411025606316        7.00807535772390
C           -7.60742056179772       -4.57162908275139        7.21487203852164
H           -7.26012100109474       -3.54163973529009        7.20527674958874
H           -8.08020915199038       -4.76895409722156        8.17325213601828
H           -8.35137573433101       -4.69326523170251        6.43246187131800
C           -5.82746286299262       -5.28485621656387        5.60067594602313
H           -5.37168403256412       -4.29289851126350        5.57257936979946
H           -6.63876835884151       -5.30293360898497        4.86960017625522
C           -4.78998015828703       -6.32404350295610        5.19457264798497
H           -5.17543655992909       -7.33506573754721        5.32676001630852
H           -3.87614497358781       -6.22303986924472        5.77548700082779
H           -4.51334128196212       -6.20111788271490        4.15024128141815
C           -4.34081524068371       -6.39849308220102        8.21487009368871
O           -3.14105299093364       -6.11567361447376        8.26614120264456
N           -4.78803245656101       -7.65603608282753        8.32978682644654
H           -5.76663608454290       -7.85007813536252        8.14680732286594
C           -3.94445845552507       -8.81918443497647        8.19418249297947
H           -2.98934982768253       -8.50157629367748        7.76092334647266
C           -3.64618142478809       -9.49563516359314        9.53978296024564
H           -4.35832379309857      -10.29751576533009        9.74589976838619
H           -3.71099263765254       -8.76356820223344       10.34617172833296
C           -2.21470641878905      -10.10439344098439        9.59892177535462
O           -1.64770747908309      -10.08240918426952       10.70407474304913
O           -1.72785711160877      -10.56619864166183        8.54194026239217
C           -4.63047695655378       -9.77826075248302        7.21192031775590
O           -5.76171014097662       -9.54106571074287        6.78533682862186
N           -3.89854503433242      -10.83452813472033        6.90139163974224
H           -2.98429938917305      -10.90864335968427        7.36466905039633
C           -4.29398952739809      -11.87396159236363        5.97671102200986
H           -5.19644721163370      -11.52585795297029        5.46932793885679
C           -3.17413745801355      -12.15117332393626        4.98556510566679
H           -2.26056830956694      -12.39329972975983        5.52351372884089
H           -2.98879843223820      -11.27496732704889        4.36898705717797
H           -3.44176232783514      -12.98766660288707        4.34808831717597
C           -3.37169133447326       -4.02315271847855        1.70040759493521
H           -3.43914133755588       -3.00366501820181        1.33010079993743
H           -3.26151840459706       -4.00657476018166        2.78290772973696
H           -4.30501310623166       -4.53301487884066        1.47562438495593
H           -9.37818988458103      -11.39030270940019        2.95002394548528
H          -10.02287666746522      -11.41229165580019        4.59613056816907
H            6.07885569634544      -11.57006686847584       -3.82543020748571
H            4.70062389103121      -10.62241711843344       -4.38217553554113
H            8.30660600055471      -14.14115005830365       -0.86772339811021
H            9.71690924189129      -13.67601454501567        0.09993077673437
H           -0.70007460806542       -8.03055713217849       10.45176562616347
H           -1.15379717882156       -6.40059083033422        9.92502014003174
H            2.26699668183312       -0.50827006385526       -0.33885113066278
H           -2.15110483383614       -6.01984784073916       -2.33532121823526
H           -0.86716296639561      -11.98885329080820       -5.72851225466140
H            8.87160134209946       -9.53128648634539        7.31656549400526
H            8.74637431156967       -4.55163665511201        7.93931221526066
H           -1.02426216133966       -2.98948175426263        0.69153647063422
H           -4.90569421567615       -4.37562806961297        8.00322057860252
H           -4.52676133745431      -12.78152189622178        6.54352522605065
