341
 energy: -538.207892042830 gnorm: 0.000718072487 xtb: 6.6.1 (8d0f1dd)
C           -9.45158374050141       -9.85243601834704        1.81048376304095
H           -9.89040144778780       -9.25474461900600        2.60623774785690
C           -8.29129035625753      -10.68852215209061        2.35554972615280
H           -7.87253002188206      -11.29247826699699        1.54896937631322
H           -8.66541727924482      -11.36239226748782        3.12851513250340
C           -7.22732236713479       -9.79890008318993        2.93204719219445
C           -7.27277793677437       -9.41152215070004        4.26514497940466
H           -8.06420886806281       -9.77834943274093        4.90388022695916
C           -6.31158277078062       -8.56547189849009        4.78987623971098
H           -6.35581215095469       -8.28829692169510        5.83380941161118
C           -5.28497808976928       -8.09774364556286        3.98564056091035
H           -4.53263808352835       -7.44431792135614        4.40441966995074
C           -6.20178761481801       -9.31286670949554        2.13184506032309
H           -6.16316161862488       -9.60279805569138        1.09336860856647
C           -5.23353448529696       -8.47306831991435        2.65249691858478
H           -4.43690408755469       -8.10975077591427        2.02135214360894
C            6.45898234055747      -11.41927966491560       -2.72947222440266
H            7.42802430432133      -10.94946885370437       -2.87607697935734
C            5.97939361947428      -11.21558773067690       -1.29768128064669
H            5.83740192749166      -10.14712345919888       -1.11163032624047
H            6.74086087049425      -11.58393215101927       -0.61018533977867
C            4.65443833322532      -11.94843761568014       -1.07012701764341
H            4.80850675113015      -13.02076054470688       -1.20614018564351
H            3.92411622167877      -11.61257845932036       -1.81092818018579
C            4.07228508179732      -11.73373225496062        0.30745734703215
O            2.90181101150883      -11.36902130449198        0.47286870032632
N            4.86953681262752      -11.99101682714054        1.33916322262479
H            4.54902503046745      -11.76755917360590        2.27096308210327
H            5.83914943346263      -12.25052829902417        1.21553030474610
C            9.48489038061843      -14.16419096432494        1.44569702068044
H            9.52258132639497      -14.98138397599066        2.16006515801391
C            8.66150574126803      -13.03082877495614        1.98445347581177
O            7.72912012543097      -12.52323088117244        1.35600944167315
N            9.01437387020768      -12.59384845630822        3.20110069019171
C            0.42174988662753       -8.06491876053494       10.43879871632667
H            1.28028350183735       -7.78227436772164       11.04342430681253
H            9.82273937358895      -12.99669543266950        3.64916114784670
C            8.30442047615139      -11.55763878230289        3.92201423740909
H            8.51033325551250      -11.65208496382241        4.98735707308234
H            7.22772927118939      -11.67342912280064        3.75199155872236
C            8.67856968588552      -10.14144756740318        3.48142394965770
O            9.09674085738397       -9.30081248739182        4.26884938232516
N            8.47064910770544       -9.91374824342157        2.18044935203421
H            8.11658039862219      -10.67516728860221        1.60263092379537
C            0.83038646883534       -8.18587222003267        8.99694769908866
O            1.87163094823170       -8.76591317940380        8.66753644968904
N            0.01712712945408       -7.61169952446760        8.10875099179763
H           -0.82356956466280       -7.14017829192282        8.44645167287827
C            0.24560978506143       -7.61764164399108        6.67918641561819
H            1.26333210681144       -7.98564439257120        6.51703019205848
C           -0.77783493571424       -8.51273551905859        5.95792384682310
H           -1.77796684062193       -8.12799987858426        6.17452276199272
H           -0.71255916790522       -9.51907584941488        6.38604728593388
C           -1.57312367687234       -8.72975265556162        3.52083519057555
H           -2.62524291531587       -8.88470724076022        3.63356357989372
C           -0.61107556015184       -8.54632835166243        4.47752945627999
N           -0.95708711149548       -8.69283931640800        2.30863603560622
H            8.39294133137767       -9.18760103406970       -1.10380806303263
N            0.57242769602289       -8.40893793957474        3.80442147130506
C            0.33399831393359       -8.48765310545300        2.50070227318211
H            1.06060269236260       -8.40532389933781        1.71612062283582
C            0.08938567520670       -6.18448240319500        6.15402738042820
O           -0.93803169116971       -5.54211419380470        6.34621401401778
H            4.75902413890218       -8.21468264505621        0.29164914878602
H            1.92664647532414       -6.33693859942371        5.26605331110364
H            3.30249562717510       -9.20640003452684        1.71974168630259
H            0.42616753819867       -3.78345528638975        5.38741538797843
C            2.48434296006686       -3.83608983138310        4.69225997337499
H            3.11745927797700       -4.53162596903712        4.14568153783640
H            2.91131177085866       -3.68122846703133        5.67763853998863
H            2.45037364531727       -2.88583228248693        4.16625626563916
H            6.17366685233039       -6.41056732667983        3.00361060419748
C            5.66399904001562       -4.41852683741427        2.60575862454527
H            4.63863292528729       -4.03603617560201        2.68100298021230
C            6.40817882877954       -4.14743830256318        3.92896889433777
H            5.80157403022450       -4.52693648808841        4.75446218057424
H            6.51651991059028       -3.06788159134611        4.03659539631559
C           -2.53645970211261       -4.13003818816225        1.90538339532081
H           -2.98679366519616       -4.06954741172364        0.90973308778669
C           -2.68592328413836       -5.55637123154951        2.42559229128978
H           -2.21931036877782       -5.65870370260853        3.40514580601152
H           -2.20899191407335       -6.26014974428797        1.74847966335766
H           -3.73794235307929       -5.80912284433186        2.52202129285324
C            8.95343390352471       -4.36608131984376        3.35281490059695
C            9.33416618648949       -3.18841501586747        2.70855280398373
H            8.62399210856830       -2.38700043241992        2.56357191427614
C           10.62955054773823       -3.07719714598663        2.25724632829073
H           10.94198536306580       -2.17598792125103        1.75090260835110
C           11.21237091724396       -5.27806349496121        3.08202050642850
H           11.92865061165523       -6.06994659387563        3.23551452736359
C           11.55714775218323       -4.10886884718579        2.44055185494473
H           12.56292288915729       -3.97861991712324        2.07174538765758
C            6.30333409563422       -3.61190394782447        1.47034768607109
O            6.06789062033969       -2.41050061877980        1.38047444929502
N            7.11020726071725       -4.26416458096679        0.63114141827003
H            7.23970861494135       -5.26974438834891        0.68309734081829
C            7.73455929597817       -3.61145277555254       -0.49727816605852
H            7.98970735780095       -2.58767484967330       -0.19650922709882
C            8.98907122862136       -4.37263878638906       -0.90759383388135
H            8.72884572632443       -5.40722433043787       -1.11524415692586
H            9.72220058897532       -4.33738618453058       -0.10589531204904
H            9.40368412816309       -3.92073316620170       -1.80336166569149
C            6.79290323468588       -3.45931815225700       -1.70306642198897
O            7.12443047317177       -2.77830643942880       -2.66604628334230
N            5.63624467304114       -4.12402322536288       -1.62764962783106
H            5.41233176163656       -4.64300167684251       -0.78642268816804
C            4.54829819391973       -3.95434245030369       -2.56754959281864
H            4.97460411382542       -3.59686279877366       -3.51055168597678
C            3.79171722273394       -5.27643399506292       -2.75139108376777
H            2.84328988432947       -5.07337061835672       -3.25266525113543
H            3.58231778023607       -5.67664743240019       -1.75872238706496
C            4.59085109633270       -6.27543580489764       -3.53809329315113
C            5.62957796743644       -6.98158459341879       -2.94257191275658
H            5.85962539151524       -6.81902728031503       -1.89923369294540
C            6.37266100753577       -7.88645826119555       -3.67840210356551
H            7.18254065370510       -8.42312612834170       -3.20824448748813
C            6.08170650042063       -8.10926132407606       -5.01322068281092
H            6.65978086847934       -8.82179924930233       -5.58124889760671
C            4.30814628745595       -6.50212463073708       -4.87874862408732
H            3.49734977652339       -5.95970378504974       -5.34367081510932
C            5.04456534388355       -7.41606108319173       -5.61212980855429
H            4.80862968707629       -7.58501244499612       -6.65176785419465
C            3.60609469082487       -2.86413873424563       -2.03655106089197
O            3.37651900190084       -1.83494055289371       -2.65866652339784
N            3.06818008966996       -3.14092302906804       -0.84489043013287
H            3.30780342940823       -4.00266347139722       -0.37278480523424
C            2.25937663411344       -2.20018251928158       -0.10343902250837
H            1.19712730877877       -2.42232395496077       -0.26471658292268
C            2.59479375455875       -2.30839628609006        1.38419509163421
H            3.65634558034304       -2.09314816940070        1.53988941085875
H            2.38701266947443       -3.33966503355807        1.71008954248338
O            1.88608770954312       -1.39558394051810        2.18592967263189
H            0.96649590371763       -1.36014276296944        1.88678934020526
C           -1.39742083828955       -6.05548344577109       -1.95186688699417
H           -1.17971507045882       -5.89390098100404       -0.89348516457482
C           -2.60201698316764       -6.99691563711935       -2.08631395554619
H           -2.57217190150265       -7.50332957827902       -3.05280312146719
H           -3.51449496589794       -6.40151590952364       -2.05403808771597
C           -2.68828071791552       -8.04880436845231       -0.99610403729563
O           -1.72559308754376       -8.35848838271616       -0.29038728310376
N           -3.88554873876937       -8.60325419340240       -0.83836146705571
H           -4.65669641012777       -8.36484851901838       -1.43848227535399
H           -3.99666753080459       -9.37521703517021       -0.19320687257878
C           -0.12037394178735       -6.55733470223354       -2.60169985645852
O            0.49136126050071       -5.89911587978887       -3.43797045494257
N            0.26061081587721       -7.78696302822163       -2.21038331543554
H           -0.18682137477317       -8.17439367735500       -1.37618258129925
C            1.56140288950287       -8.32404294555181       -2.52530514325905
H            2.04977205375534       -7.65417551631254       -3.24415391477010
C            2.42135515206899       -8.37540312905106       -1.24681706046778
H            2.62060571528166       -7.35373774197858       -0.90913259236737
H            3.36938934020536       -8.86297476853629       -1.49390649689433
O            1.74684464605226       -9.01923388831860       -0.19769970782732
H            2.00672499577823       -9.96043817695222       -0.15796028379162
C            1.49943877507357       -9.71630945654461       -3.16235258312952
O            2.50002760449192      -10.42599325624593       -3.22125893849943
N            0.31258797703330      -10.06244935951000       -3.65622811643156
H           -0.45480421416828       -9.41916101566171       -3.52230673286820
C           -0.00316082585559      -11.38493572889500       -4.15099052949499
H            0.89364641310307      -11.99323475256837       -4.02054300567194
C           -1.19047446683679      -11.98027524974731       -3.38963296710574
H           -1.31434582302230      -13.01919268157624       -3.70526494398121
H           -2.10108158319077      -11.44240028458420       -3.66178258262915
C           -1.01562182097340      -11.90331169131291       -1.90511035353864
C            0.15003410176667      -11.86648650183519       -1.19475252129413
H            1.16468090574753      -11.92213140899731       -1.53827187037407
N           -0.10735694425478      -11.74669420026525        0.14013338535164
H            0.61090535963581      -11.66744084379399        0.84088953215639
C           -1.45304738682916      -11.70298316714704        0.32985317886655
C           -2.06816612839798      -11.81116463875076       -0.94535104085147
C           -3.45969105993448      -11.83122261282540       -1.03656470492188
H           -3.94540667024809      -11.94111542691466       -1.99406009177416
C           -4.19804311195317      -11.72142004635783        0.12220950865340
H           -5.27649887707146      -11.75301726135264        0.07516259472534
C           -2.20713772501679      -11.58968966154505        1.49284859957856
H           -1.73197670189142      -11.51567664723372        2.45929948485319
C           -3.58044144945474      -11.59529898034594        1.37194988577629
H           -4.19361739839708      -11.50969547993911        2.25524371534712
C            9.48139979417220       -7.75054364512536        7.56669637404766
H            8.60567440285244       -7.91071438415734        8.18752087551525
H            9.27796584487463       -8.13016233425735        6.56722638651772
C            9.80910020145352       -6.27679018799368        7.50300961558913
O           10.96454565856680       -5.85877260956671        7.52932545973660
N            8.74471756592636       -5.46953798431614        7.41600286366262
H            7.81210480614404       -5.85821155410123        7.37027333517162
C            8.85682670409603       -4.03620029917166        7.29355420679206
H            8.36263029373387       -3.69807489218621        6.38262357018847
H            9.91614237847559       -3.79037381735151        7.24295460889816
N            2.98877188520577       -7.72388399459780        4.91185284754129
N            4.25949879128243       -7.96197009557912        7.49698583891737
N            5.04455578499012       -5.45746826852066        9.87638155662219
C            3.92541927555127       -8.41613072247080        5.17737359021566
C            4.69581648567265       -8.75312478626197        6.37471955118064
C            4.07728499429382       -6.03713826739892        8.96484478818996
C            3.24399138746385       -4.93348842209356        8.29907497426577
C            2.54170824701071       -3.94518826334065        9.23945407170239
C            1.60948695465520       -3.03358781640499        8.44654418797852
C            1.80494590771691       -4.60347286328187       10.39370282733392
C            5.81788683199923       -6.41278354487207       10.64365846507991
C            5.21694744540435       -6.48413804580939       12.05385766191649
C            7.66046739326422       -4.71009858982828       10.87506620755197
C            9.00052977779112       -4.37655761999934       10.92088289216239
C            9.98296455793328       -5.36323182210391       10.87364118181364
C            8.24940840400179       -7.03191245459535       10.75295807178816
C           11.40869374134623       -5.00879014157580       10.86235876563023
C           14.09344310059753       -4.36899299723978       10.77753947048918
C           16.41470690304503       -4.83503396557781        9.17075423511070
C            4.79737147899527       -6.79059568604069        7.83156399386154
C            7.27728003881037       -6.04100092903963       10.76116819550053
C            9.58843506858786       -6.69690542804222       10.81401870706619
C           11.85104876673107       -3.92765750563724       10.10002575800457
C           13.19518888073638       -3.61092286923507       10.05091369100267
C           12.33416075687056       -5.75556698906898       11.59143046638353
C           13.67881066559339       -5.43604656495198       11.55072185435989
C            6.13151080413502       -9.20088505228831        6.36994829148198
C            5.05631345010459      -10.18810393728775        6.67375357987902
O            5.81371972414850       -6.32496877853974        7.31790073762087
O           16.00855866642041       -2.56123582187388       10.47861659126229
O           16.52844853333982       -4.55702567687441       11.80791639097570
F            5.22336643427542       -5.31365733544801       12.69955920867526
F            3.93630416660375       -6.90617760633484       12.05453216749712
F            5.88045055186750       -7.35288013778370       12.84358967399745
F            3.54001757171476       -3.11222078308382        9.79291810353671
S           15.83447866777150       -3.99685486140669       10.65525257068120
H            3.42997891506833       -6.72657713594339        9.51311681541875
H            2.48623854272779       -5.41166740124636        7.67748616835285
H            3.91574292651775       -4.35746402146797        7.65627597191513
H            0.79381783928838       -3.62006836754328        8.03421218040284
H            2.15038392097277       -2.54156786357573        7.64291564235862
H            1.20087958732307       -2.27309673665815        9.10605255949395
H            1.32619542994851       -3.84150701002796       11.00251736751127
H            2.49459895906799       -5.15829167643349       11.02111402694578
H            1.04582781631107       -5.27553242301938       10.00542678434512
H            5.72665986864280       -7.43837581204711       10.24724873102616
H            6.90541239041699       -3.94050002353134       10.92856543673579
H            9.28722620114703       -3.34089025584555       11.01155924285551
H            7.95402057891213       -8.06946209091771       10.69587152738357
H           15.81197869467637       -4.48204961713088        8.34513907617849
H           16.28913518401334       -5.89670328601421        9.33199950714804
H           17.45711576642167       -4.57933590673296        9.03279565705306
H            3.39252429835823       -8.26325482409263        7.94216831622946
H            5.66157897137166       -4.85057439055879        9.34410146133255
H           10.33441711016236       -7.47414204820538       10.77662295180574
H           11.14280619130307       -3.35771235494979        9.52144081957955
H           13.55996968792180       -2.77974737286832        9.46933139599254
H           11.99545040062601       -6.57626465680103       12.20359444172621
H           14.41406176560849       -5.98792159261799       12.11409257070132
H            4.80556904550567      -10.92230617972340        5.92420888202711
H            4.90982612435678      -10.51448345495013        7.69143431986382
H            6.74132547430874       -8.84031029473995        7.18214963590004
H            6.64214317244578       -9.26669775796584        5.42221581149110
H            1.50348764682170       -8.19507049892052        4.21405458560463
C            8.74018141325252       -8.66405490199440        1.51562195908299
H            9.22894803974406       -7.99072056711150        2.22943659131801
C            9.68300460961279       -8.87336474031108        0.31290182497898
H           10.58060687950213       -9.39746073935222        0.64385547624816
H            9.96101993548334       -7.89092654380490       -0.08386233522173
O            9.10688555157852       -9.68218902925582       -0.68169309665069
C            7.45212542048696       -7.97898926066268        1.04846528880116
O            7.46680260476267       -7.08882536821799        0.19907850405507
N            6.34012814109761       -8.40968526696282        1.63132171667854
H            6.36204447896329       -9.11245335196920        2.37647030225139
C            5.01554280002183       -7.93216088690845        1.32063322391920
C            3.97421110586699       -8.55940447313568        2.27973639894074
H            3.37972570798436       -7.78542707396730        2.78602323218368
S            4.68142493635283       -9.54612946848317        3.61606832712915
C            4.93865098350021       -6.40755650575520        1.37685224238903
O            4.28463944022881       -5.76013450057469        0.55991063005795
N            5.62354343178512       -5.84202879592781        2.36931664668049
C            7.73452413762493       -4.82857624255764        3.93508592938047
C            7.99010062979905       -6.08145001461799        4.42619897807204
H           -1.38915834291268       -8.75998291506638        1.37574666087223
H            7.33816263303270       -6.73887951257890        4.97188234786507
N            9.28835853972805       -6.42401880465002        4.19146062751441
H            9.69923569380175       -7.30679417995221        4.45613055301186
C            9.90566073800332       -5.39918627283049        3.53966998157978
N            1.14584630830225       -5.70857114106108        5.49457023709798
C            1.08905954729649       -4.43256319176388        4.80741056773781
C            0.50773706915671       -4.65606973798763        3.40051675287675
O            0.83736246207144       -5.61938130316315        2.71813566125686
N           -0.34203811988713       -3.71058078866142        2.99532561470451
H           -0.60023181846972       -2.97760952434869        3.63744503261136
C           -1.05369022398725       -3.76032231980215        1.73663783987882
H           -0.54784686566124       -4.50809269963543        1.12131690304193
C           -4.26522565067850       -5.30136012003507        9.99082667112900
H           -4.59214759486919       -5.52660838317794       11.00881309353329
C           -5.50065233471870       -5.01364144593042        9.12259779926059
H           -6.05932011776934       -5.94314592001253        8.96669685990814
C           -6.40493153830137       -4.02918751979708        9.86589598085857
H           -5.87811669661297       -3.09486597844968       10.04341001390432
H           -6.71295055625225       -4.43946264026566       10.82417221790595
H           -7.29568789432946       -3.81806297767462        9.28058817966667
C           -5.13266150322597       -4.44448700397042        7.74854149406395
H           -4.50859223242504       -3.55843851167237        7.88042703249437
H           -6.05739089782960       -4.13285788015431        7.25807690385548
C           -4.41403897837377       -5.43351834443990        6.83830261374107
H           -4.94386691916863       -6.38454695796382        6.81094481167141
H           -3.39384544437963       -5.61493257165299        7.16940088490687
H           -4.36170199744468       -5.03858169822544        5.82642281791384
C           -3.40348341184882       -6.45965949320699        9.54332018395265
O           -2.18251778485512       -6.34456618112743        9.40430283327195
N           -4.03957803216006       -7.62312093267567        9.38192205149944
H           -5.05191633955629       -7.66790385255895        9.43948054954472
C           -3.45180306641456       -8.82009021011451        8.83078275558064
H           -2.63418975699809       -8.54159382329335        8.15694932679050
C           -2.87724571285205       -9.74119119322397        9.91681976553226
H           -3.63927980878827      -10.42455589624211       10.29933497769886
H           -2.51668385625025       -9.14229523973926       10.75492464139440
C           -1.67459622133019      -10.61005198693741        9.44192259506287
O           -0.94170331385752      -11.06277697000870       10.33797682448777
O           -1.52813329017070      -10.79934926104256        8.21441436988511
C           -4.54928574940316       -9.53936411714516        8.03758279994806
O           -5.72189931546005       -9.16782707579052        8.11106077709761
N           -4.10936918806897      -10.54714789899248        7.30203626283852
H           -3.11584937830433      -10.78106880067089        7.39800197737534
C           -4.95361005332887      -11.43037522866933        6.52518655546244
H           -5.94956345750813      -10.98301428166663        6.49674401757899
C           -4.38983249821009      -11.60480700482443        5.12359362500803
H           -3.36913482584679      -11.97446865889456        5.18015703126522
H           -4.39329985611745      -10.65121216253379        4.60374522130809
H           -4.99684388449362      -12.31639250930399        4.57279133707562
C           -3.25413471499472       -3.14414610151621        2.82591735897033
H           -3.08364204545287       -2.11880104378625        2.50787564829374
H           -2.91307409915846       -3.25943832798154        3.85276043424003
H           -4.32423612573388       -3.33296868560976        2.80962909940893
H           -9.10063168959149       -9.17993963007962        1.03190874176905
H          -10.22208223074965      -10.49752662035139        1.39575044141115
H            6.55760302356442      -12.48008960864991       -2.94515224203829
H            5.74759876001428      -10.98800866637527       -3.43129523920453
H            9.05007278039454      -14.51243186609556        0.51374921200051
H           10.49752061194112      -13.81821708380414        1.25342602809073
H            0.09513644957998       -9.05181945904501       10.76949644627125
H           -0.38786989080164       -7.35287078478066       10.55969021722180
H            2.47395863610012       -1.19916238807294       -0.48682062075781
H           -1.62540783021348       -5.09331418134571       -2.40990087940510
H           -0.23489659110436      -11.32886303455103       -5.21835553598014
H           10.33118888559322       -8.28843092229663        7.97494270269590
H            8.40400213740084       -3.54574079663823        8.15606512647918
H           -0.97674159707089       -2.78385742093637        1.25224006298487
H           -3.62479136233066       -4.41825368560214       10.02777466088391
H           -5.01398872098888      -12.39929698937409        7.03208463308038
