344
 energy: -548.027134700995 gnorm: 0.000324757709 xtb: 6.6.1 (8d0f1dd)
C           -7.66669033010780      -10.77678360128100        2.05514619361132
H           -7.80160075036377       -9.83133663291265        1.53533055554482
C           -7.77216550953368      -10.57180412161255        3.56836281595336
H           -7.66699943700993      -11.53358723277365        4.07225126015150
H           -8.75759174219858      -10.16761532438814        3.80770826988218
C           -6.71483970840886       -9.62692975614890        4.06638174448246
C           -6.83356065514856       -8.25940340401048        3.84082275108440
H           -7.70431825895214       -7.87738406949703        3.32929351718636
C           -5.86251419975491       -7.38066735641453        4.28662594619334
H           -5.97261387035869       -6.31946691156325        4.12078568621042
C           -4.75269362364222       -7.85630565885556        4.96620567318051
H           -3.99882772065047       -7.17304248474131        5.33123377450187
C           -5.59696457008137      -10.09310664924956        4.74870280388216
H           -5.49333217659832      -11.14846567124142        4.95716214331319
C           -4.62235469574323       -9.21669977745180        5.19816058568436
H           -3.77039143556705       -9.58707779581636        5.75239897359107
C            5.00889918337350      -10.28172920081075       -2.00338302867872
H            5.80277101602505       -9.53434166111912       -2.04245388811661
C            4.85737245519518      -10.75819340944216       -0.55229611506038
H            4.59796027463035       -9.89670037554301        0.06267589611971
H            5.80750344707621      -11.16053806460381       -0.20375830347389
C            3.77893396595923      -11.83674371872959       -0.39693775440317
H            4.15591102341163      -12.80535131534027       -0.72859714599465
H            2.90653581835095      -11.57857150370314       -0.99772396966362
C            3.34836428412147      -11.95074573544665        1.04617448792281
O            2.23728419993469      -11.56468435845930        1.42465995506297
N            4.24147232820091      -12.47139277112519        1.87944500423258
H            4.01286120687837      -12.55657013741281        2.85737116759371
H            5.16476506699866      -12.73635688274671        1.56346120709301
C            5.38287758659355      -11.45519333203548       -2.87233832705422
O            6.54826735494194      -11.84455823877595       -2.98897858079742
N            4.36550266445567      -12.06970816765465       -3.48296405349751
H            3.41666478855023      -11.77327666273637       -3.28566098754580
C            4.55493060831370      -13.33433204597205       -4.16984370710653
H            5.36750568890648      -13.23515477109199       -4.89217097481951
H            3.62613943434946      -13.59843650000765       -4.67131565719071
C            4.89121703374381      -14.39212366484741       -3.11618292427870
O            4.02015946062887      -14.89249324939199       -2.41011780353318
N            6.19287913767503      -14.66578983597538       -2.98655168358918
H            6.84912306827837      -14.22507444582282       -3.61582971871485
C            6.73450737947368      -15.52709011388514       -1.96052342248592
H            5.92803201202699      -15.73796333175987       -1.24763206853080
C            7.23413886736376      -16.85074724111119       -2.55502848796823
H            7.77149561845772      -17.39414030057194       -1.77606205415234
H            7.93414558076462      -16.63045300182733       -3.36218312974373
C            6.09135621959548      -17.71714780145204       -3.09705277805372
H            6.51753153668346      -18.52677712230288       -3.68891831423185
H            5.42939000276523      -17.12036417260799       -3.72337859940600
C            5.30162355437402      -18.35260567981867       -1.96527305135711
O            5.62636173971521      -19.43214398484027       -1.47528405546168
N            4.23408269487314      -17.66900345180211       -1.54310628865402
H            3.70156633187722      -18.03779483256485       -0.77129175638282
H            4.00465719157946      -16.74507256998696       -1.89295489081288
C            7.84879793183103      -14.86450800511731       -1.13903357665174
O            8.51022561403092      -15.52208158057004       -0.34330937567581
N            8.05501216832474      -13.56121666515399       -1.35470910307454
H            7.42672829035511      -13.01128507582450       -1.94082851945224
C            8.95100385792170      -12.79569180068939       -0.51678185020885
H            9.74163558556233      -13.48641542553539       -0.19347368437295
C            9.52784063804892      -11.64796629926905       -1.34153047060495
H            8.80761050031886      -10.83879942075880       -1.46403161005799
H            9.81608946774847      -12.01796327673828       -2.32352994191643
S           11.01292550142202      -10.86002351159266       -0.60797928582266
C            8.18055725185289      -12.32017602387994        0.72584483675288
O            7.02294890815552      -12.67503982139048        0.92449362863208
N            8.85606104654769      -11.50879708895357        1.54265411510636
C            0.31556512776814       -6.71779497111497       10.67284360958759
H            1.16996324709895       -6.76438553637440       11.34033275374114
H            9.78226439162338      -11.20079417257086        1.26398080030727
C            8.27674753121058      -10.86545710541636        2.69794530335422
H            8.92299138702381      -10.99795752518761        3.56792327939425
H            7.30826048104491      -11.33069947148985        2.89992130772617
C            8.07214002548539       -9.36659530690187        2.48181796451437
O            8.33145353049117       -8.54618210822148        3.34949303827709
N            7.56819612653951       -9.04239168386316        1.28360249225103
H            7.41770848045009       -9.76117169237031        0.58974533999747
C            0.69417573761040       -7.18519786569427        9.29869039645038
C            7.47274469382138       -7.69339466301866        0.78026390204398
N           -0.10438527426443       -6.74707513325892        8.32211443269000
H           -0.90647255565968       -6.17014371734381        8.56687036114836
C           -0.02101749831900       -7.17924011925736        6.93991959566562
H            1.03261586490320       -7.19825800479932        6.63848066629813
C           -0.61599696394046       -8.58442790647644        6.74547953503182
H           -1.67442711050835       -8.56258897478524        7.01963921373063
H           -0.10911099685312       -9.26816520684592        7.42958688788014
C           -1.20834974081852       -8.77281783497271        4.23722532070473
H           -2.08169300955606       -8.16342966744718        4.13696414527951
C           -0.44694009630152       -9.05568986765833        5.34156289614711
N           -0.63756547808422       -9.43389887287175        3.19221087974856
H            8.32055233964158       -8.27880607719115       -2.27580959071746
N            0.57966234531062       -9.87866286187616        4.97362429473475
C            0.43084239058096      -10.08174436182037        3.68651900026340
H            1.08778566285405      -10.68069348827203        3.09117196439351
H            5.40799203194219       -8.10201334447691        2.25392809608972
C            3.69796333413838       -7.50283582983655        1.17217568405735
H            3.37591017311973       -7.91708977631316        0.20774323120807
C            2.87838168214648       -8.16771168020547        2.27460050320209
H            2.93648379782578       -9.25171909294989        2.21711966075182
H            1.83600663123996       -7.86727811596026        2.17114208824913
S            3.38807882376042       -7.66667608059957        3.95798823877315
C            3.37319599876420       -6.00006586530066        1.08488890204514
O            2.48734769771568       -5.59002978856425        0.34760294867160
H           -0.49733746595647       -1.98678513800302        4.63805453919812
H            4.81317266037435       -5.68634029079331        2.47996795838650
C            4.07828013495054       -3.80914763216612        1.98319224595490
H            3.02796954691224       -3.51576905554976        2.09972432723322
C            4.87148410028941       -3.39741985871626        3.24679382459273
H            4.28290388640455       -3.66964440892201        4.12305691784327
H            4.98678211952220       -2.31321305322831        3.23115504536966
C           -1.27391801158157       -5.08384299767692        0.31232542471042
H           -0.97386226888253       -5.20083366552681       -0.73373976632733
C           -1.08853050183306       -6.42263290670698        1.02043161883149
H           -1.41269919310530       -6.36503909448873        2.05949161056557
H            8.16567110978780       -6.54321239547416        3.91134856853799
C            8.34055333788253       -4.72238290325558        2.83244865932968
C            7.38879373324777       -3.69734350886348        2.59843054893274
C            7.74562172435084       -2.59644077661982        1.81890248849491
H            7.03557942163521       -1.80360634631432        1.63428286690204
C            9.01408506107212       -2.55254919268126        1.28634795077058
H            9.30681471392352       -1.70998784766142        0.67734202114795
C            9.62051799664086       -4.66909151253637        2.29195012451879
H           10.33291674205024       -5.45711128736229        2.48163088595368
C            9.94031179923553       -3.57570555364250        1.51802164234067
H           10.92460074404689       -3.49902473828733        1.08179837869334
C            4.61954938545038       -3.02614181260313        0.78191915037874
O            4.42641894593387       -1.81299814526138        0.71380464658173
N            5.32881161720489       -3.70750157685138       -0.11391825727303
H            5.39199660619767       -4.71619457046858       -0.06067448113406
C            5.93698128971752       -3.09240933259244       -1.27064857035441
H            5.63806148293017       -2.04615854406658       -1.29420184957026
C           -3.64345325759473       -8.66265848778841       -1.70315452274471
H           -3.64848143720998       -7.70793001373567       -1.16962435534025
C           -4.05394743578981       -9.79762728591296       -0.75160605830726
H           -3.67428865456796      -10.75314213963704       -1.11633443228107
H           -5.14016249853795       -9.84985067055904       -0.71243972587252
C           -3.51096533828120       -9.58691322135880        0.64644260249233
O           -2.30475016997836       -9.64853771073358        0.88664235525937
N           -4.40483035300614       -9.29421521411597        1.58696736247367
H           -5.39308438218382       -9.26852068975924        1.40109474003632
H           -4.11209818207268       -9.16767084098349        2.54425877869010
C           -2.28176631082401       -8.77824101075158       -2.36796068801443
O           -2.08759219885862       -8.29569687282180       -3.48193593361329
N           -1.33790769618628       -9.45551251659761       -1.69748336919600
H           -1.47893992003681       -9.66631421656762       -0.70328708373631
C            0.03164446605665       -9.49782967064226       -2.14874933396213
H            0.12020173538080       -8.83750172782654       -3.02326667821047
C            0.97285672285888       -8.97010257549129       -1.04174132470431
H            0.85240470084667       -7.88496713969163       -0.96446090963101
H            2.00378015600704       -9.18547427926424       -1.33903816571979
O            0.67082232231812       -9.49195958725818        0.22593113305888
H            1.14416387600270      -10.32877595316550        0.38977119281342
C            0.45097364281563      -10.89733604687521       -2.61226201537066
O            1.64012384449243      -11.21221683415977       -2.66682874477590
N           -0.53751521724997      -11.69372012198180       -2.99885280458521
H           -1.48215547782192      -11.34796699073561       -2.90451398263454
C           -0.38622311369468      -13.10556011206153       -3.28062525490082
H            0.65683959592890      -13.36285016297172       -3.08823787428645
C           -1.32242668165010      -13.92177768199848       -2.38064347613014
H           -1.06014780925920      -14.97742220092150       -2.47383078718121
H           -2.35236533124012      -13.80062556344247       -2.71888133878381
C           -1.22692449517598      -13.47573768119349       -0.95480873690063
C           -0.09047608931124      -13.16739174382120       -0.26216028739916
H            0.93458408234433      -13.23086686476544       -0.57299556139612
N           -0.39840710435348      -12.74272609636533        0.99687495636664
H            0.27571946687119      -12.38122618824557        1.65204133609478
C           -1.74944464859138      -12.74755961651398        1.14698284584692
C           -2.31537148473541      -13.21673179399938       -0.06768202252819
C           -3.70139954383191      -13.34244292452804       -0.17136350182888
H           -4.15684126901440      -13.70955330035722       -1.07905244664116
C           -4.47838456275457      -12.99869221432840        0.91123598847905
H           -5.55178557246750      -13.09940543304377        0.85026766162133
C           -2.54202145216753      -12.40117298947756        2.23480278446309
H           -2.10004886722864      -12.03821667292461        3.15194306624726
C           -3.90682471813439      -12.52963820752202        2.09858295548372
H           -4.54719850828590      -12.26548901936392        2.92711550643088
C           12.85618262072675      -11.81696496652986        2.11743485535739
C           12.36818350526822      -12.90497776313171        1.18454507550856
H           11.36244562651289      -13.24059157537613        1.43272985517806
H           13.03921972513811      -13.76260555277718        1.18255355326872
S           12.38175518462148      -12.36535785805740       -0.57446547413351
C            8.45139384443172       -8.69464627609858        6.62547705740049
H            7.41122876166122       -8.79293338233521        6.92061500947202
H            8.50903322080907       -8.79273430113664        5.54251632904880
C            8.97411726619694       -7.33240020082741        7.00387843789913
O           10.11224808603336       -7.14670528160595        7.43589230467231
N            8.09923406254155       -6.34108570739904        6.80130907975111
H            7.17308884276362       -6.58303923548524        6.46242555760368
C            8.40119994805128       -4.94804424057483        7.03194312434290
H            8.24046904134715       -4.37080081466485        6.12087728051907
H            9.44674484073194       -4.87752063145467        7.32754640688173
N            3.43103167207608       -8.22533399796956        6.83639175464531
C            3.50482446631273       -9.45336389138411        6.05244749629989
C            4.02327439045451       -9.19478382856679        4.66090563396204
C            4.79768366628650      -10.03200753123653        3.98996660358693
C            4.27818447741966      -10.51645046888270        6.83192557702113
H            5.33148878370962      -10.25370232479212        6.88952249395529
H            4.16087838394061      -11.48968809583612        6.36957675858251
H            3.86790178530478      -10.56871285754305        7.83761955413285
H            2.46014276548538       -9.78018553716941        5.92129248863911
C            4.36918414656907       -7.28496351639808        6.86763312469045
C            4.04667308225757       -6.07478280547134        7.75945128023783
N            5.05085714840625       -5.92338479095038        8.79841671785140
C            5.00171394142809       -6.93495478271318        9.84347623455609
C            4.73970797247155       -6.20801191637107       11.16856638372866
F            5.63798523253731       -5.25386591633877       11.45413499076282
F            3.54352118859194       -5.59144664908154       11.18239438857785
F            4.73610913161054       -7.04434690041528       12.22519466377171
C            6.26378214001975       -7.75821183312997        9.94749952492877
C            7.50030843813367       -7.13460363959505       10.07671003789651
C            8.65719563424865       -7.88566794987458       10.14025579424038
C            8.60489276815923       -9.27580717862518       10.06935862326795
C            9.84343565108641      -10.06730716392510       10.11957266030225
C            9.90316273133121      -11.24138979000517       10.87078394469731
C           11.07163985236336      -11.97965285866123       10.92255695849438
C           12.17722366516164      -11.53968709500049       10.22057435183028
C           12.14039009650499      -10.38210929962339        9.46537283530157
C           10.97326770838980       -9.64198802605592        9.41715914009719
H           10.92521390897925       -8.74520780354211        8.81599188065062
H           13.02803887091417      -10.06547447852929        8.94207618822959
S           13.67633477322495      -12.50893861591879       10.24193109593700
C           13.68989262680761      -13.43401616798308        8.69540591503264
H           12.81254770277857      -14.06594591787191        8.69193205125480
H           14.59685650690887      -14.02395491857105        8.67401178149394
H           13.67311826645718      -12.71392670690820        7.88909608262789
O           14.82671675763925      -11.61479562219861       10.25525796444357
O           13.62377320652750      -13.45357480789144       11.34991780030912
H           11.15179077796447      -12.88194659146823       11.50746829533387
H            9.03909135330216      -11.56193664306033       11.43082876918433
C            7.36332383201743       -9.89499874986730        9.94527825893885
C            6.20465956326414       -9.14362945169496        9.88583449941457
H            5.24600608475166       -9.63069620413873        9.78961028601636
H            7.30395446946309      -10.96931810077840        9.87168970632917
H            9.60804958645926       -7.38994799687534       10.25135901801521
H            7.55985637567119       -6.05890192213904       10.13682234560793
H            4.12968913558920       -7.59146037775902        9.71441273049475
H            5.97399725581186       -5.89963974916316        8.37372944266403
C            3.99546463632047       -4.83979026591285        6.85760835813716
C            3.52877664960282       -3.54810601510718        7.53902233183806
C            2.25888525479542       -3.70511783842653        8.36339270861085
H            2.47712165482536       -4.23172414882385        9.28634355124280
H            1.49001697801412       -4.24812039974760        7.81788087458450
H            1.86965635399893       -2.72065762160138        8.61065333548042
C            4.63742666528579       -2.87504681545410        8.33154833077394
H            5.47540679492952       -2.64948997001127        7.67751405021815
H            4.96092189558972       -3.54404403708880        9.12149710450697
H            4.27189439453154       -1.94865908220085        8.76559679187979
F            3.20420699577676       -2.67179551977201        6.46489717122282
H            3.31018255883496       -5.05813130996273        6.03246936322919
H            4.98546380903905       -4.67101253862119        6.42914278080665
H            3.08127267375973       -6.22381547270261        8.24394137834664
O            5.42307482458877       -7.33671589999756        6.23492539183096
H            2.68150936800528       -8.18616025281519        7.52340202522861
H            5.15218683415362      -10.93399949685362        4.45148313743360
H            5.08617921062826       -9.87204344093686        2.96783859056434
H            7.84745864845141       -7.01235737024056        1.55245956193958
C            8.34252764580761       -7.54250483134537       -0.47532252569908
H            9.39764596374998       -7.65687983430911       -0.19676109258605
H            8.17566644870317       -6.54041323944613       -0.87930911775870
O            7.98207487803257       -8.54148271183872       -1.41093391839299
C            6.02214821867437       -7.29657077833848        0.47451879151328
O            5.72351697327169       -6.61349341194350       -0.49413335957717
N            5.11344665196628       -7.75846531922540        1.34768977553445
O            1.68204959791674       -7.89449555192183        9.08245940925810
N            4.16215424513756       -5.23966853038215        1.84005857798985
C            6.19572587759800       -4.08439572987833        3.28218348441004
C            6.46562982806817       -5.29412602655403        3.87178728784489
H           -0.98897452447061       -9.45943059004266        2.23884954384668
H            5.83484961632185       -5.91103167303537        4.48503692561273
N            7.75107313930837       -5.67173935434313        3.61272908803626
C           -0.77648691947376       -6.13674822743838        6.11655911024431
O           -1.99894883767570       -6.13145828795786        6.02019595534358
N            0.00254370540134       -5.19923823577171        5.57261220289155
H            1.00617727352413       -5.32010921527463        5.55943866754356
C           -0.48886700631771       -4.14507218875155        4.71174908225839
H           -1.57677699148306       -4.25470105496725        4.67558190904865
C           -0.09978650923884       -2.77623311627095        5.26752865422144
H            0.98230894544263       -2.68088456134245        5.30774640517588
H           -0.49805180189617       -2.67331983284883        6.27407606320235
C            0.11770346976590       -4.36083442680666        3.31524247816931
O            1.17503517315400       -4.96449188009954        3.17722582796235
N           -0.59032729122258       -3.81663963300047        2.32484845227098
H           -1.46897237076567       -3.37519944611797        2.55051676300588
C           -0.32930424671068       -4.03220906984080        0.91802632146284
H            0.70160553143199       -4.37836720406621        0.81762391019737
C           -3.45302529089073       -2.75467100606567        8.50916892370767
H           -3.88299300046954       -2.42533759311922        9.45674166069318
C           -4.43018037479851       -2.45022337121506        7.36230485451369
H           -5.38237287050203       -2.95188639015927        7.56684146212103
C           -4.68204831381362       -0.94521082626378        7.29671152461325
H           -3.75425399806335       -0.41583967875700        7.09413531614043
H           -5.08439040470308       -0.58905137946279        8.24127690521763
H           -5.39511047834643       -0.71221138828152        6.51199099501990
C           -3.88450072203578       -2.99116618299212        6.03439845735596
H           -3.44503073849895       -3.97847187344160        6.20829063848373
H           -3.08853777948539       -2.33244794914770        5.68141628355064
C           -4.96260226694908       -3.12244286191296        4.96444385489957
H           -5.76507573812082       -3.76473281113544        5.32318995943956
H           -4.54670068304310       -3.57041216768282        4.06478140319914
H           -5.37990944820045       -2.15354022568193        4.70615498510483
C           -3.11820632889839       -4.22757174434077        8.63189939503977
O           -1.95231718958049       -4.62848949372639        8.66702859554088
N           -4.17315796234427       -5.03667779349648        8.73985222175286
H           -5.11714446531473       -4.66565713609123        8.64599124701044
C           -4.15698107749468       -6.47609583557299        8.62358468063031
H           -3.47446551466743       -6.76751762790270        7.81176750913340
C           -3.69946495212947       -7.15773772282102        9.92086853707355
H           -0.03778172473643       -6.70384207342523        1.01620952490993
H           -4.54877304017084       -7.34143128831196       10.58355125100060
H           -2.99518702520156       -6.50830703134115       10.44422461554542
C           -2.97789596099187       -8.51721575928344        9.69629071185376
O           -2.09462009881272       -8.81743081224447       10.51681624847176
H           -1.65302604879957       -7.21118452933026        0.53130287501583
O           -3.33371715895775       -9.21905502706547        8.72288115128112
C           -5.58769937029353       -6.87889275238519        8.24000272808541
O           -6.46372764880496       -6.01851102139968        8.11658322184222
N           -5.77667696933267       -8.17560795468084        8.08051126643281
H           -4.95638674473320       -8.78052207913626        8.20629656244541
C           -7.06041949809605       -8.77985891522769        7.79207750259544
H           -7.06749096714667       -9.10877328995314        6.74852990165268
C           -7.31066340033096       -9.96376570155896        8.71398146695747
H           -7.35333240728890       -9.63829352129105        9.75014215645290
H           -3.09979971655418       -4.62993909692628        1.38744305534021
H           -6.49947998221664      -10.68137554657719        8.61462215887661
H           -8.24745821524474      -10.44462239857896        8.45247465240796
C           -2.73236249003532       -4.63161555639317        0.36348693074369
H           -3.35325781091098       -5.31184647886838       -0.21354791888873
H           -2.83909248767833       -3.63449232672588       -0.05489024970894
H           -6.69425529498695      -11.19112170311980        1.80034486548077
H           -8.43640147473251      -11.46617359781840        1.71864259230246
H            4.07598394102616       -9.84082624260497       -2.35258510251990
H           -0.45811503797941       -7.39948577697684       11.03294756071189
H           -0.09047199803908       -5.71157906755587       10.63456725026680
H            5.60268514294621       -3.59616789278805       -2.17562474986369
H            7.02271079893623       -3.15991085579835       -1.19070697770759
H           -4.36920799710220       -8.57978475592955       -2.51327710503664
H           -0.61286325156752      -13.29610833355615       -4.33262575190661
H           13.87601858591764      -11.53383587816641        1.86847727090204
H           12.83316258225350      -12.17868901827444        3.14201015387071
H           12.22811942426289      -10.93097213323390        2.04483307650537
H            9.05284680020499       -9.46798999764684        7.09197377694582
H            7.77623183900610       -4.53765367439342        7.82745886863313
H           -0.43855677041383       -3.08049406555918        0.39457547176615
H           -2.51388537885376       -2.22041503887508        8.35419948579571
H           -7.81672130106046       -8.00243943250111        7.92360702604895
