649
 energy: -948.237836667752 gnorm: 0.000173867638 xtb: 6.7.1 (edcfbbe)
H           52.98525588314865        3.15948139349023       31.61215374888526
C           61.36668733718571        3.00293346609782       53.42792590467543
C           31.63302985669027        3.14848467977419       65.84838604056647
H           51.46058255789440        0.52997415677357       46.75795826598841
H           38.80673768023139        1.63677218643911       67.06368660977203
H           47.59125783949504        2.50178000965341       43.01412804208886
C           53.86005977669964        2.58063182454392       21.20094358822726
C           19.99421642731101        3.60660450781127       55.28023344881370
H           30.12942845160776       -0.25181902312214       44.95525273656311
C           47.27893218552419        1.89222851256463       49.56119626737551
H           50.00917645789102        1.85095982656802       49.38173642832251
H           47.23259008680895        0.65809156421243       66.93681647881047
C           34.13344892742807        1.23205640734458       20.11821736466316
H           61.58281023061539        2.03967434722195       58.04246365253370
C           56.04789126950057        1.74732166599253       24.85494558880300
C           56.70044600579632        2.59034893649487       27.09629923726666
C           53.92347388911256        1.17192033724833       47.16440833520167
C           59.91144325411646        3.12712593363229       32.84830338171569
C           19.11373679829342        3.69745376851870       54.11030818332835
C           49.65581300606679        2.19854780008044       65.14089084684467
H           41.62203819194183        1.96741789240328       36.52379000017687
C           53.84361345510751        3.40699481219154       24.77595730516655
C           49.47486046909476        2.66304483315244       48.88129526607653
H           53.27100645165146        1.47503632528931       34.14585952345617
H           37.99794779380608        1.30047209678406       25.32778789741580
H           31.93786210631625        0.15898067057570       20.16057731473644
H           21.43816393401724        3.03545155537598       38.90028161081572
H           26.52462374385148        2.23470520634040       48.83739672204411
C           59.01081112964878        3.13373380628304       31.68744954539088
H           51.07366259851165        2.56745666733411       19.29493022526935
C           38.06173468479269        1.88560916610560       30.36585553224506
C           44.14669990466638        2.04370923206003       55.26381934622524
H           47.16812860256450        1.39130832863958       23.55048373462483
C           24.31857796990985        3.48097871024948       61.06920157674526
H           37.91892970773770        2.76485376352992       36.50184668467161
C           43.08064949480303        2.01773309084851       56.35787435883367
H           46.87173747458172        3.76465326020432       64.01797924359920
C           46.82509137008567        2.66693321605471       21.86096726106337
H           42.47129003845159        2.21893474836382       46.55419211403398
C           56.07127360915535        1.45274002594893       48.40891620279181
H           53.77422223800069        0.17547231895854       47.58735992007122
C           38.78970925926507        2.68961857802211       21.58902209934254
H           42.67764884969037        2.52452656679626       39.48991759666596
C           38.80680007861508        2.66893605982012       65.19915714920629
H           51.25284464863933        1.36362872033624       35.61524246058246
C           23.28937381301477        2.10065416203498       38.28664572277258
C           64.11840040734670        2.52370135873048       48.25734909291466
C           18.18645199364792        1.28453139634617       28.55517769841791
C           53.14536525738682        1.27404637427374       45.85255422803983
C           15.20344953153081        2.75907818868399       38.59177426566939
H           25.75900707000736        2.33971405643104       41.67225300754644
N           59.03854891227106        1.76711149498923       26.44858132817038
C           25.42689053472524        1.88360425519579       39.58752029205937
C           34.00850159984014        2.42510892019174       63.16050210654899
C           56.35395984592045        2.93234412328749       28.36155065865519
C           26.10758582903833        1.61608506261232       40.92908020428337
C           65.87589388042329        1.83273624752438       46.75476626776536
C           28.97676779295838       -0.13520742620470       51.76095082423429
C           14.10252998712614        3.08924810866840       43.57475741792852
H           46.84064030317912        3.95555474102535       20.14536457189971
H           61.02742477216398        0.93706424259974       59.32586216483649
H           27.90483754374491        1.65273783637608       53.59291320974432
C           63.67576462864751        2.00688890701082       40.84688707790405
C           33.70332495691071        1.80882276111453       21.33729117472946
C           40.24262177167781        2.78254946056811       21.40058729933454
C           48.81456263882529        3.36015188138838       20.69039934058977
C           40.27059841538895        2.68308861268819       65.09781414980269
C           47.37414509569191        0.32440365156001       44.35400617426037
C           25.34842545186687        1.76718023275300       54.79056075203356
C           22.84834769612208        1.89716454271570       62.10497960550383
C           31.59778264988444        2.71211894901136       22.34501401548059
C           33.64687297605741        2.49678975287791       64.52420001669334
C           13.46216689647778        2.09571049845651       40.12455725617549
C           27.40343562500098        2.39953391843296       66.65517302966178
H           62.82472392850782        0.45493286571286       32.19503279671057
C           24.85008181056534        2.59910406972084       63.25440499332750
C           47.47667004090624       -0.93974063446334       43.45613183390734
C           19.88845033393499        2.97128157647344       32.02035535645665
C           23.90316035065767        2.24918914634357       54.74994538715692
H           41.48740867647205        1.77169275902421       17.57890702094219
H           55.90606205387194        0.48642985169252       48.89070960497402
H           46.57402138016685        2.42852328682028       51.48485380699348
N           27.53858801370875        1.79142518556656       40.78174455103404
H           62.75582746094769        3.97173021568384       47.44625024985242
C           43.27623478338425        2.28278668018383       60.23536202326336
N           34.41713294914315        0.71189071960401       19.13403329397942
H           15.09926951501276        3.34532389086457       55.07106052139602
C           65.36803878759481        2.64707630901510       45.74443732928642
C           57.57023179246221        1.75052798843958       48.39387319056068
C           60.00663065403317        2.70319811527887       53.44898453017441
C           19.16205965346422        2.98830735467239       33.29369721918671
H           25.74620588612459        1.12183016782715       38.87164298932956
H           21.70873234990636        3.23803927891336       36.41892828421163
H           47.77073798659116        1.96414649648006       40.74849735336964
C           65.16032962112259        3.49008846964063       39.69821443140205
C           29.98711352686311        1.76805465045274       64.10862447751245
C           31.68445986002004        0.50801369093037       42.83883285012750
H           51.47909200519698        2.06478870039740       67.10277005256202
H           40.60420673299863       -0.33145636383005       36.56272404764394
H           24.12384210186557        2.50074791083945       65.85506040385961
C           53.28082045808043        2.61685615286965       22.46898442755641
C           47.62869853206745        1.94911708894275       22.74778735399495
C           59.23509146859553        2.70483894654248       54.69649755387968
H           34.38991070718455        0.42979107715705       38.35869542333085
H           13.21900208806967        4.65583191002468       47.07988060917619
H           17.24643234869244        3.47080320128568       32.45174872638741
H           61.87457069610356        3.27960070219869       54.33875737068438
H           48.70293095449129        2.55071959170885       34.43063347130816
N           45.21030526284370        1.11026570775619       50.69190778055975
H           57.84139278175774        0.97461251719095       50.38810029712286
C           27.18840756718938        1.71858921436921       20.63622868681026
H           32.17568354700806        3.43856537533576       22.89734726476271
C           46.86858628479830        2.20692612988741       65.49680427484174
H           21.52132104878641        1.46896395126909       36.27973356756929
C           61.19038488087136        2.53290402750468       32.77944795670168
C           62.15138721982255        2.64694438371544       49.77153524976540
H           42.07430961253589        1.23206817474731       58.79284910328753
H           25.11131446697302        0.57242543678605       53.02464576706459
N           43.54122769332821        1.85822177094814       53.95577029105971
H           32.19842039996623        0.50724029578068       43.80392736000930
C           65.26442449205440        1.77263697541770       47.98967935185907
H           47.22907139014411        0.00070494336658       45.39008761116996
H           25.83454735913650        0.60821639334816       41.28830856998916
H           11.32112155744037        3.04379076361178       41.66036376297756
C           42.63756903909572        2.16598368718175       58.85357904306790
C           21.30252560012510        3.15969895339962       55.10704296746102
C           57.65569657173243        2.86050361912029       31.87049434634972
C           46.12459570385722        2.21505458184004       50.51355353288451
H           44.41879071757097        1.40163853905922       57.92240257217891
C           53.06612033727232        2.57786670825196       20.06819327408491
C           30.08476580234722        0.91300041576022       20.88971724417643
C           27.11085010075494        2.53526237498822       64.28006323581114
H           10.27504678980136        3.17574275330856       43.88365230228576
H           58.55318344379521        4.18209849751376       34.10813292769924
H           53.49538858965975        1.89380530947775       47.86274256758837
H           40.60248109755749        3.04672694136116       67.18780743640370
H           31.37984681056102       -0.52495241368770       42.61580918695875
H           50.81488589104159        2.87516914995959       32.99923277042867
H           25.62690399264355        1.19634861736104       27.63565728405704
H           61.52537530554021        2.75650233742404       48.89601875557619
N           51.72713715699925        1.30622488609850       46.16272893114721
N           45.02639107381581        1.93800657257385       40.52129507659748
H           24.10702693678786        1.87940482880775       22.00793622582931
H           27.40656385831290        1.20095163328731       51.18624633438981
H           38.99079296978039        2.37660563420822       23.67691264832613
H           52.99475826338586        4.07493279826382       24.74288376743268
C           49.23362646384396        1.82473373462964       35.05435636408887
C           51.08443959432650        2.63666843941905       21.43910095028443
C           37.29560827010067        2.13741400228446       25.44456089698996
C           62.79454046325932        2.06416075620040       39.78859567823883
C           65.75784770584309        2.71786430327427       42.00180860036111
H           66.06959117922779        4.07262775465015       39.66728449095433
H           55.31242997820182        3.66494740139831       62.90252650273074
H           23.69185847430958        3.02355959150218       37.86214666191766
H           38.39630448895591        2.01539831906613       38.03174716407425
H           45.32024635694121        2.20036729321310       45.56820918888238
H           57.54222778450843        2.73171002948971       50.30713250039109
H           39.75590124963688        0.08047043832455       38.05387112049569
C           44.41464417865969        1.10589164214909       51.83763007846901
C           15.53108225074142        2.40591073931772       46.08837390027728
C           40.85512294603550        2.20875762260892       20.28761436779800
C           38.28346950428294        2.47764392526881       22.87069652795858
C           40.89533952797700        2.51965210492627       63.86073064710370
C           38.18694110707138        2.08467563976488       66.30367247111727
C           56.97183350704678        2.56371480784548       58.29808262684293
H           13.66548077969892        1.33103826974901       38.14528729990830
H           54.96672123548455        2.15923712330497       64.65166988634272
H           41.93273453308019        2.98725253697097       58.70615803137864
C           53.89142299941884        2.19206346474227       64.74552172789876
N           29.19024285840314       -0.66143905033337       50.41833330333858
H           15.55258703015417        3.67532045584590       50.86881489724225
C           17.79280804383944        3.23502622829830       33.35170555981488
H           44.86262651989568        2.70322566075091       20.00847452051881
N           38.66158056379395        1.79141648613316       32.71970884361128
O           61.53501244473546        1.96722826741467       31.59315110814421
C           14.06811571752007        2.00272317688780       38.88948282837893
H           36.36314845233861        0.84352872089877       36.08020309935527
H           45.61103708067561        3.13371052667977       50.17993040408019
C           25.78059303814139        1.35879501454505       53.38271175796208
C           54.65817562310867        3.39981749790775       25.89108431392073
C           11.93763941560171        3.06616967297931       42.54677166689476
H           21.62223969212138        3.98190632995091       32.78260248329977
H           27.29240462351893        3.66073721746139       48.60976393009338
C           27.21860923656526        0.85401760888059       53.30635258118311
H           61.03102079294065        0.38977621610143       57.63220706760625
C           19.30598433570020        2.41085535718955       30.88461163737255
C           51.28920610649619        2.08724831426201       33.58784798475764
C           32.24527141261144        1.79379724726286       21.51749875365782
C           45.36678656659161        2.69103630171032       22.04232616747768
C           14.93168382026618        2.27585533175716       36.23950243214652
H           49.27295109556805        3.93844051203408       19.90139322037122
H           29.67825577124995        0.69023529611780       51.90501524869299
H           36.00507302703020        2.26799870901342       38.60187924032466
H           47.86693657827924        3.81967878887133       49.32208447738283
C           45.41694172284769        2.21863235993719       65.72515235257589
H           15.49244498559188        4.38671324845368       41.54574994455904
C           30.22059440521958        2.72845294016904       22.44008555920491
C           59.36619687233743        2.40550536654647       52.24712257093162
C           19.85394703228508        2.74902183626302       34.48008623177434
C           37.55876422319840        1.63625718229617       31.78707074746514
H           26.85725669307617       -0.42185582373423       51.61545570937653
H           44.60056790423076        4.38004504233815       46.14353360910189
H           62.98150434481690        2.07089760563519       33.86113307920864
C           54.74047058243384        2.37019265779314       57.35189615324354
C           25.18503735718835        1.89429950848474       21.94472515136678
H           55.30943589817299        3.10582616912365       28.58300226569286
N           35.69835330152269        1.97743782361575       37.67682822184390
C           30.26785595418631        3.13768154456316       66.05016337759643
H           67.59663116074866        2.70551421725745       40.89590133307789
H           59.98464350689709        4.14060542422324       36.08560318790293
C           59.79459917832199        2.21955650878177       55.87748500123392
C           34.59542287850062        2.28457441802422       22.24073860814555
H           15.75923745176383        1.73356482572324       45.27456880074904
H           53.92773417633729        2.03636902719217       66.87575026757628
C           47.44123839262273        3.37192070288091       20.82804153087531
C           17.01043969945213        3.36156943277459       49.39905765513512
H           56.39815436064752        3.74918744135882       60.71503938918892
H           31.77007789589415        1.24715934079858       63.05990386921348
C           47.47412942109892        3.06479475656184       64.57841816450636
C           34.56246310094502        2.52429452702713       65.52041051041664
N           19.81409129237050        2.24558176130450       60.55139665397635
H           18.00874335192317        0.91784928618051       27.54533981422545
H           54.93586234651527        2.57372712989930       21.10574013719131
C           22.16891919858353        3.00672236026924       56.17960224952716
H           49.23205435304688        1.34545273481853       37.03889537701046
H           34.24340929692491        2.56282084461078       23.22492434702920
H           38.25530876953496        3.01923890032271       19.53476119537448
H           45.62590153645456        2.65313585402307       40.09039912547927
H           49.65603090213772        0.64360836859941       66.61664102155706
N           32.06856808596181        1.76083030427113       38.47617521760668
N           19.42351329003295        2.81586094117129       48.73763408344114
N           30.54756236808158        1.40501143769069       42.94116853110624
C           36.88178787009307        0.92243203283673       68.51614289668369
C           62.00458504173455        2.52817196494933       33.90056541927663
C           16.95125410395169        3.30764106139206       53.09475119355439
N           44.67843251550067        2.44361640451286       24.49668802305747
H           25.98966959952431        2.56387721152494       55.16963813327720
N           39.03957702406770        1.00012548225132       36.34127906584170
H           57.49241822842790        3.61083236457756       53.82926479950829
H           56.18484435713789        3.53948025924981       55.88585755088973
H           16.56226723453216        4.23730962559175       39.35503135547997
H           38.82729431079843        1.14110735050320       30.13103494155536
C           53.30633067921869        2.10897636062614       65.99496343251704
N           48.75778797889978        2.20718331431035       40.77217627249338
C           56.77006746377213        2.82514889844602       30.80257624451276
C           55.23628318174932        1.76178464574575       23.74090359941859
C           23.39750555343301        2.57506009884323       28.22536035911435
H           44.64865538906770        3.01581160803426       55.26041560245371
C           50.37875139698374        3.89090074042260       48.83355005155000
H           17.25638450363529        1.83968762126290       47.20542233374375
H           63.44147904160487        1.38254697077212       41.69620646889334
H           65.66850137998381        1.12689289737504       48.75582939973631
C           51.71614890087282        2.29897455511341       63.74114661456207
N           48.27345016317732        2.94498099219057       49.64507503416078
C           49.35243487144704        1.75146351811255       42.01200599988723
O           19.83849487734511        2.50176086901177       36.88837325685702
H           18.30991628629704        2.00588818854518       30.96510845700679
C           36.92163237447624        2.35996634095757       23.11236720484958
H           45.21775695560128        3.05958948383539       43.39877552228769
C           36.80644542453129        2.04418855062460       66.41317986807037
H           22.86937657397917        3.83872647024534       30.68907206990903
H           25.67194819864899        2.21252280343764       52.71034296370673
C           22.59496293040060        3.10784077586072       58.61575840243827
H           43.01357617888956        0.99212405997305       53.91763482570243
H           51.43917074853166        2.68843522632621       23.55001595665937
C           38.37831440449715        1.70297492342038       34.09329311741401
C           14.38251041781302        3.19432737302660       46.02944578527263
H           49.10124171670400        3.08910795256205       43.72274584570989
H           36.03591841691746        3.64464217970478       63.52817127307439
C           30.15129007107045        1.78575304384127       44.27438509229309
C           42.24032800473363        2.29414941931847       61.35649036383236
H           49.59804859111306        1.34772882050696       23.28396225961369
C           21.17753370551601        3.49346073074409       31.92964499858786
C           43.54481344427040        1.44156174433857       48.81576992361874
C           60.76420244283825        2.82877220298181       37.97087577331294
C           13.96786091992954        2.94600699008967       41.10568080052548
C           44.39415537812430        1.97881513017175       52.84730205975648
C           57.92600159761845        3.18380528950636       54.72000795817007
H           45.36245817216513        0.28699360929379       48.78780123421561
H           28.60081911290807       -1.47497719550193       50.26935820041930
C           42.23449914835527        2.22167302514625       20.14428211904174
H           35.83112104800389        2.79253148600666       26.87907706175307
C           42.27735564224271        2.50579598395226       63.74926190731365
H           36.79518290748879        2.37434107775433       32.04944297673659
O           42.94905442860173        2.35359872741177       62.57953132332839
H           55.16907626124064        3.35085413707177       32.82696369437252
N           46.69893907746219        4.01631878347171       39.46375759988519
C           53.39458863985068        2.31723318912278       32.17223729246479
H           43.03152497780596        2.99062823262229       67.01809182285461
H           42.79358160297232        0.80352736515993       48.34037491993050
H           57.31333423968390        2.64106539497858       32.86901419810108
N           29.53633358354532        0.97253522620064       46.51473625420473
H           68.01747506498545        2.67627399155879       45.14311440813570
C           20.00253670856802        2.33289281786924       29.68930082492691
H           45.92358724861980       -0.56498192396847       42.19743673939342
H           53.04275571541235        3.22102792491696       34.09074585742095
H           58.31934265374411        2.15273158450169       52.28236375172058
H           57.76642605047556        2.67710132530040       47.85204812703113
H           53.52427540510885        2.55163360847062       19.09038759233528
C           18.35582137802140        3.07827851329879       49.07067675947785
C           36.96600253679659        1.82048551077591       29.30147341625584
C           43.69063802409642        2.19686615960885       57.74645812536476
H           28.04805133715091        2.32170480156053       67.51823842839850
C           53.10083082047427        2.28867418487394       63.60160099671975
H           42.89299686862405        0.70339500527569       17.34505132321706
C           60.05004162295727        2.39902596069316       51.04031958273784
C           19.20722334894357        2.73241768457665       35.70653520580407
H           38.09593496901924        2.97068256350835       27.88745148565054
C           32.19716494907682        2.47192776059638       64.76759253395761
H           36.00482400809571        1.03879012842219       26.77010474864568
H           23.57351118786174        2.68024993345719       40.34341278387001
H           43.71815130572794        0.36632691561800       40.32586788294886
H           60.80481051544181        1.84347174039424       55.85035586364297
C           23.52052350469522        3.08347666927239       25.78645156606987
C           36.55259937751730        1.98197093703409       26.76836120901808
C           63.48012450398674        2.46094323114512       49.57977832793728
C           15.82072401207930        2.67800493109594       37.26167309992724
N           51.68138725526119        3.52676409914352       48.30398783266454
C           59.06215076808456        2.18232374858887       57.05346746945899
C           67.94971334576917        2.69687141366132       43.00549547711699
C           29.41844496134906        2.45132020012327       65.18316723555802
C           17.13516111074776        2.91759268973284       37.03389816029159
H           42.55000655078810        1.06315993639458       56.31675578252172
C           40.13973426518577        0.49013521938748       37.11575871814873
C           50.79906014162557        1.49592660759259       45.12258286089817
H           40.77840608469577        2.34315432547095       38.03767654296792
C           29.52131326828587        0.64466230903582       45.09981094416340
C           23.68486403944873        1.83585312229778       63.19932940076743
C           28.51702474865936        2.03538397014105       48.46983166309701
O           59.54221507214415        1.70544663528286       58.23405455101653
N           14.15893878447410        1.91425077631330       35.46977928177726
C           21.70996139525462        3.29260323265381       57.48764208100306
H           23.27319578256157        1.45844071070798       54.31922835399967
N           44.14624303465553        2.23622007782232       47.76005087672876
H           61.87342180225755        1.50042001267902       39.82515931147034
H           36.80850737467779        0.15100976659356       37.64966781118625
H           29.46041380752222        2.62632647067881       44.19787087913598
C           27.96127776800116        2.46176475916902       65.37915558840432
C           48.14825954996201        4.03239787612405       39.25651195106833
H           29.16898472770317       -0.88456069780352       52.54845913975203
H           41.57645049287967        0.20486018242350       18.43427780193617
C           61.57795549856554        3.07220805304485       35.11697422384930
C           17.46850190762297        3.68166447760596       51.83236528647218
H           55.88568088083495        0.67096197187225       46.40241794328050
C           44.58976036445598        0.54685781645057       49.51275720441596
H           29.50169971558859        0.19561245135715       20.33108888022112
C           54.97482929857209        2.45654413587824       59.76055834590930
C           58.06706401075510        1.89336761141980       49.82914123586187
O           23.44635958197989        2.56063406689225       56.05331242272938
H           23.59456483610849        1.27994663663067       37.63290338888221
H           64.51987903737088        4.16192422413900       37.77775703278547
C           28.33778756909282        1.76669017608076       41.93475969133155
C           57.25365238929477        3.03385682068170       29.48892477939174
H           53.41637685215009        0.44200846897913       45.18128301146277
C           51.89467984131876        2.65276650992639       22.57109512581370
C           21.24561854187541        2.35112050562350       36.87375940919771
C           25.80681811524591        1.73700590704198       20.72003517434833
H           20.91034245208582        2.54553082530784       34.41706381749940
N           48.50279412618238        1.21917356724897       44.33262268694799
N           27.38109234612226        2.74351026366872       49.03669395829797
N           25.06052738296469        2.41366484850905       30.16480593237548
H           19.17815329246337        4.47552556238554       50.82411469616537
C           25.29142887306081        2.18777620787965       24.41330727784850
C           54.91185244906040        2.45596291797220       32.24292866754587
H           55.56751031291552        2.20918066551377       49.01547318939740
C           36.01899673014003        2.42568832610383       22.02379833075567
H           63.84027073726284        4.07158257851970       45.26073597622894
C           35.99945244313693        2.58535032938716       65.38432559507108
H           51.09356316798495        2.37623055278597       62.86154294992798
H           17.40804550370489        2.97961272347835       55.16455412759406
H           43.73730642562986        2.43062078987652       38.06482612181722
H           21.44057739666306        2.59012448709575       27.48932924361444
H           38.53899176987100        2.86693429222041       30.33848548451644
O           36.14098337450502        1.47859839676739       67.45667291005232
H           25.60688517045116        2.36228793502027       67.81254100403152
C           44.94928821083028        2.57068404675845       23.38767053927135
C           62.46893972648866        2.99257239228784       36.25693099789645
H           37.86912890915133        3.07483866062974       25.46522749452084
C           16.61316089950832        3.60045900629958       50.67054166413534
C           14.09413511108933        4.02311293958557       47.11233652408417
C           45.03387417447589        1.77563296450506       67.01130010366435
H           53.14256986883456        1.40230884958169       31.63410336877752
C           16.37147357711823        2.45906074620116       47.17931084473877