649
 energy: -948.211004079034 gnorm: 0.000168195677 xtb: 6.7.1 (edcfbbe)
H           53.20631803762858        3.03333900172967       31.61232096988418
C           61.52952830600913        3.17590886251012       53.55693979338580
C           31.71350836043613        3.04390282967646       65.83832865032204
H           51.55969020861401        1.08101171477869       46.91249489920666
H           38.85712078414071        1.42075103289793       67.01840841720237
H           47.64877396865226        2.84169545288949       43.04710407726468
C           54.01463854721253        2.52753831645359       21.27224946285923
C           20.13736566956037        3.72028733703650       55.27701612385730
H           30.26285698705364       -0.04521614063616       45.12451628433828
C           47.27190333041444        1.76732590577439       49.91539832828983
H           49.76556956618609        2.81218181827294       50.06826186436827
H           47.29715524478719        0.41387274822284       66.91078609036546
C           34.22266057694780        1.24900029254066       19.77672489485562
H           61.71049395250594        2.07556743010996       58.14215581618375
C           56.27464102320229        1.75357894236859       24.88522629573330
C           56.95194064170474        2.61400207537669       27.11261196527193
C           54.01115681425048        1.82642324833884       47.30330312025623
C           60.11202520851205        3.16164398016520       32.90605464269301
C           19.27729901064260        3.81272124520940       54.09209617574260
C           49.71857681807964        1.99706487389480       65.14868690527855
H           40.50855787482498        1.84829324241964       36.28487837149675
C           54.04549738500142        3.38248528369333       24.84001998248144
C           49.25050226221374        2.91738737253757       49.11030410450114
H           53.48782011974133        1.23278995536654       34.06574030273489
H           37.95896225997753        1.13972829602403       25.18309308805624
H           32.06084758203563        0.05218915632421       19.94437082576631
H           21.44642875547829        3.14877526685230       38.96537246859012
H           26.56052124144003        2.12632940310181       49.09601311348593
C           59.22785188518885        3.14968213686260       31.73297408598208
H           51.20353014373541        2.49381323088315       19.40431842895369
C           37.47857679652657        1.64922791096763       30.23688862994004
C           44.31775839317821        1.43631930605562       55.26062045235055
H           47.32801878658645        1.36020341302740       23.67795003617616
C           24.39427937572507        3.57730810340556       61.11646105944061
H           36.70876952395822        2.96333014007123       36.16315280918325
C           43.24144421238604        1.50210906305728       56.34355347223215
H           46.92620673776860        3.54634599692059       64.02181666609243
C           46.98594919993923        2.61354484344224       21.97195573868708
H           41.99245030085963        0.43250509175568       46.50752070268027
C           56.18092649220502        2.00776642880270       48.51829536703460
H           53.80413824217126        0.88845154347986       47.82517530414515
C           38.95473959726714        2.55227881992289       21.46090104762869
H           41.66852639931127        3.48583227714444       38.38273002965169
C           38.86735630926636        2.41240295209483       65.13200506463663
H           51.44303070600179        1.02286606648184       35.49618717639613
C           23.31615316008925        2.20288859839617       38.43036402045566
C           64.27257703730018        2.73394929568548       48.37012939364090
C           18.43676575868036        1.07637826826559       28.59753650737093
C           53.22784583784495        1.83909206914919       45.99108707870858
C           15.26509420445104        2.91440250556158       38.56571206978236
H           25.73045087650650        2.59509499447941       41.84539924981893
N           59.30848061616678        1.89092896970802       26.41633580923049
C           25.42963648936993        2.06333692696858       39.77308198557141
C           34.03278006798371        2.23744198497925       63.12426330957172
C           56.60337332094453        2.92231542956690       28.38536682042162
C           26.09604813096869        1.85111337634663       41.13104467751459
C           66.01390272755677        2.01752898910895       46.86019188283208
C           29.15505094850759       -0.13145934193672       51.96438595905369
C           14.22088812787511        3.30367164340939       43.55509578290516
H           47.00090283514140        3.89123714923792       20.24810838472884
H           61.13901702125692        0.93290762046511       59.38277809418793
H           28.03843705289036        1.64493935253907       53.76953958664836
C           63.79752103820935        2.15526874164801       40.95792145247218
C           33.83834666469876        1.73783642743023       21.04633829068691
C           40.41331245488846        2.64748642434820       21.33128814899787
C           48.97521531428680        3.30793387305670       20.80342671559012
C           40.33184551539209        2.41588938498295       65.03595275246637
C           47.32302198987185        1.06802134067372       44.84072486270622
C           25.46544741213658        1.77548727398084       54.91865094673184
C           22.87035736923705        2.05668181730065       62.16908313715333
C           31.76573122905820        2.58764520575517       22.15713156476928
C           33.69252042771092        2.33077377214296       64.49206602051393
C           13.51216679620662        2.31832994052722       40.11403031034941
C           27.46712465829390        2.42488429504511       66.69316887154318
H           63.08398384224359        0.54367611828972       32.29831790639668
C           24.89909585482568        2.69560541108950       63.30814982784668
C           47.24858448044233       -0.33930241910934       44.18476811431820
C           20.07671993984198        2.82166252044564       32.06304676772174
C           24.02653361937585        2.27138055387587       54.84112287732648
H           41.79814561162941        1.66415747455016       17.55238063881145
H           55.95046528228286        1.07500503023867       49.03856422797586
H           45.60312743670450        2.70261089091910       50.89349565785935
N           27.52605375489707        2.04086124045387       40.98932984233915
H           62.92395318423129        4.19660245205397       47.56121239926937
C           43.38805510809561        1.84796585577300       60.21572682552278
N           34.46526858118690        0.81122329426173       18.74258644820944
H           15.24487962650305        3.60267164969223       55.01501986488083
C           65.50984133706150        2.83395968733088       45.84972064093187
C           57.69697203045542        2.19641015109366       48.49228279707972
C           60.16191545870519        2.91153424999633       53.56720492207742
C           19.31661816387061        2.88424930560244       33.31555676806684
H           25.76874593938709        1.28128322508970       39.08868330429647
H           21.77892382323236        3.24361839677469       36.48321516486008
H           47.87991757784514        2.05708667593956       40.79104100046330
C           65.28526637892512        3.62568174703072       39.79622985958085
C           30.00889466759804        1.69854154747065       64.12835514028976
C           31.71035242802666        0.84465464496755       42.99116105746143
H           51.52632891807738        1.83918775735266       67.12291905835468
H           39.25766025324690       -0.15848228400829       36.91812233575273
H           24.18676269369758        2.63186431077300       65.91591223274418
C           53.45270076905793        2.57437072090903       22.54760376017314
C           47.78928819251238        1.91132201566559       22.87100863001006
C           59.38645300000336        2.88558620823684       54.81204053069138
H           33.24131741144248        0.84776597747632       38.40814142727191
H           13.41557833034222        4.89807822797850       47.06690505880928
H           17.42487904186719        3.34607310424653       32.40972865451232
H           62.04262673870955        3.41290931275959       54.47599519473645
H           48.93917864862777        2.37381501109357       34.39216126604544
N           45.14289799946029        0.69534678575470       50.56656265732803
H           57.93771830738865        1.37090756473038       50.46850480457050
C           27.32796434873655        1.45550398420265       20.66789526526633
H           32.35351634972827        3.33079382575082       22.67588352091111
C           46.92918950104308        1.97389022003955       65.48435022147747
H           21.59382863060950        1.46992530133300       36.41838910883803
C           61.40232544052648        2.59104071098169       32.85658913282669
C           62.31449905670677        2.88655771448245       49.89285907581588
H           42.16476861634914        0.80613912159103       58.78447707676742
H           25.25935416501539        0.54126786086285       53.17592663243111
N           43.70315499297348        1.32534256002981       53.95050107955419
H           32.28574609072840        0.90345789327196       43.91927395156439
C           65.40821515925072        1.96845911449898       48.09838974538567
H           47.22342542026367        0.95544485681901       45.92547035600990
H           25.83269462412187        0.85254083929133       41.52169909999104
H           11.41357573723446        3.32117632007901       41.67869096778347
C           42.76952724294746        1.71483913386303       58.82659078260828
C           21.43724255024550        3.23921896971116       55.13479274837447
C           57.87780291237781        2.84411870975625       31.90023303387807
C           45.76406675645666        1.92925544062146       50.14342385247675
H           44.51520294211036        0.82565694670296       57.93808300690551
C           53.20544282178719        2.51213081554386       20.15089385760157
C           30.22933798607098        0.74223337878480       20.78744226880068
C           27.16187127958746        2.55941360720881       64.31982727569100
H           10.40070726716954        3.48205515568744       43.91524985937498
H           58.71593206570614        4.19437681234846       34.14252988915190
H           53.63424347209745        2.63834152925390       47.92885405218218
H           40.65066678858485        2.82534595655450       67.11942459332458
H           31.45158660241272       -0.21090092829171       42.81733834421783
H           51.04710771182110        2.70708303067142       32.98069115188042
H           25.92445311845857        1.04908096728683       27.72922719530150
H           61.68967458772669        3.01708739490170       49.01940539234015
N           51.81352358879597        1.85794828353093       46.31200921386588
N           43.90930527552725        3.12526747861733       39.95607352449591
H           24.29073079140436        1.56944314200995       22.13497227094489
H           27.55863399350792        1.16025710177571       51.36213812843295
H           39.06315858365381        2.23847127937501       23.56042353749075
H           53.18784153204876        4.03951140131667       24.81904070325252
C           49.44204436919681        1.58948060892391       34.96625780506967
C           51.24320457969725        2.58614729067965       21.54739108356181
C           37.25795106495234        1.98293314040202       25.25343888373321
C           62.92024324124986        2.19866646604959       39.89565220116690
C           65.88194153477870        2.87270039392078       42.10492471777814
H           66.19409955072474        4.20867824480354       39.76195333751460
H           55.37617593338189        3.58625511009229       63.00587347746266
H           23.72021434811862        3.11108760824128       37.97651875413246
H           37.10083447392923        2.45836305769952       37.81067573117402
H           44.48657617748719        0.11632123261792       45.09544787578266
H           57.72118664206452        3.14144232962661       50.42324551773520
H           38.45229187612905        0.70020595886145       38.23600581397125
C           44.41567364421091        0.64247613366412       51.75485018275796
C           15.66674771698146        2.59619572445685       46.05538775349586
C           41.06879303913692        2.08154398448748       20.23886740390279
C           38.39543985302128        2.34081038318540       22.72080310917863
C           40.96411931356059        2.22214605934155       63.80701033682030
C           38.24179964742029        1.85984912541744       66.24968007850218
C           57.10219848033262        2.62939743752005       58.39416071873436
H           13.67646167080774        1.53711924714308       38.13766513431612
H           55.03400910572770        2.03174969569650       64.70718472930183
H           42.10617662340027        2.56228304009325       58.63998397787422
C           53.95758241488030        2.04918867817437       64.79162999025014
N           29.39444239930862       -0.65357202282341       50.62439742154134
H           15.74466090506591        3.85463880562112       50.82801693921819
C           17.94756198853791        3.14081152018112       33.33103032734451
H           45.06846252080530        2.59646018081992       20.09127784479234
N           37.78226658866503        1.59085338310574       32.63921967882209
O           61.77398258357314        2.03004016369709       31.67609799517525
C           14.10627333572079        2.19939040797767       38.87513269959938
H           35.05098254984486        1.12979716319297       35.98117962652146
H           45.30839036742886        2.28776560271719       49.20959153178304
C           25.92022316235020        1.33767763976296       53.52723538314009
C           54.88093251598275        3.39208307248082       25.93940029790684
C           12.04263986716204        3.33054238211789       42.55651291557139
H           21.80655062207066        3.82641939014740       32.84268944623886
H           27.25123571560404        3.59801827635902       48.91953231815564
C           27.36135399758696        0.83855363791787       53.48263180833793
H           61.14638247273445        0.44630586977219       57.67072721738321
C           19.51667792736691        2.24042989646806       30.92620523153872
C           51.51304414274514        1.88232617197049       33.52390352883900
C           32.38995040976704        1.69144884260282       21.28934243125282
C           45.52532694261852        2.62173492598307       22.13405623858758
C           14.96933720354595        2.42676352885469       36.21792119480885
H           49.43389435088513        3.88189194731455       20.01150246554720
H           29.83579331911804        0.71014509028860       52.11460242517494
H           34.81065331620739        2.74635447861368       38.39738236615713
H           47.34609798652690        3.21654929005153       48.49780469120818
C           45.47585237943915        1.97179975360417       65.70235338258804
H           15.62441835503902        4.55077196234882       41.50728221490083
C           30.39683816200618        2.56168734508521       22.33232245771372
C           59.51740024381661        2.66899073818742       52.35526817907193
C           19.97462422138238        2.68267833938698       34.52797861339725
C           36.78972668388906        1.47212952122684       31.58906263885093
H           27.04370477453750       -0.46969653048871       51.80763077700082
H           43.97459052237597        2.46018868772231       45.35332929996365
H           63.18520861152245        2.16331381316302       33.96564191598907
C           54.88845186465640        2.43474907322444       57.41352068869747
C           25.36557210810992        1.60794869704843       22.03780330574432
H           55.55437329122206        3.05930831760309       28.61158679122854
N           34.44641202660713        2.37041674175243       37.52491676368517
C           30.35100222070972        3.07253597865269       66.05656898267519
H           67.71505113113110        2.83954236449580       40.99021550631185
H           60.11955148577957        4.18485372772137       36.14063371750973
C           59.93524353125085        2.35071573322962       55.97674781155118
C           34.74329294705313        2.16096999326734       21.96123561767800
H           15.87281880015637        1.91895978668735       45.23973090511066
H           53.97653524826365        1.84312733633591       66.91776931263517
C           47.60199441669729        3.31538826036226       20.93687858249945
C           17.19260579192697        3.51351838357978       49.35702363724019
H           56.48524993598917        3.74337928544607       60.83428114396711
H           31.76362394056011        1.12023087230453       63.06250815529896
C           47.53228035708650        2.84704872118759       64.57906098909524
C           34.62192571204967        2.34604198380023       65.47582210542492
N           19.84929859637499        2.50567116228744       60.60485265479348
H           18.27729005867134        0.69067641581741       27.59173379894964
H           55.08893747903093        2.52233606316528       21.16200544668414
C           22.28112747122073        3.08685219542864       56.22519952108106
H           49.40663782527268        0.96561146469842       36.90942931909452
H           34.39182886931899        2.38543971625264       22.95939822871592
H           38.51207207979093        2.87256076245695       19.38410312164408
H           43.63409144237870        4.08743950136494       39.78864289799968
H           49.72293521790264        0.42442761569553       66.60590747828911
N           30.97375736162758        2.07954771118714       38.83300905207847
N           19.59000786170066        2.92191755801527       48.67934850127416
N           30.53662522098913        1.68329334470895       43.14429423044094
C           36.92779913553798        0.76461317398111       68.49049541977593
C           62.19973799309268        2.60297883386421       33.98947026689142
C           17.11412659850574        3.47602552687879       53.05812751388066
N           44.80285902860960        2.40446287449862       24.58082808898843
H           26.10705283332011        2.57318701612931       55.29508824766189
N           37.76193737084487        1.14870606430074       36.33785206744241
H           57.65879221841944        3.84675542857202       53.97382994100733
H           56.33987498075483        3.70879550999345       56.01993828805463
H           16.67434644537152        4.35365634433531       39.31186393509362
H           38.20874519790459        0.84599005778472       30.10706578452042
C           53.36230199200346        1.92916839479386       66.03317223419440
N           48.88689443089044        2.17039070330401       40.87311506608130
C           57.00573576437353        2.79651024421137       30.82232117989301
C           55.44049383652057        1.74932822984452       23.78793754799024
C           23.65709609427308        2.37701052479406       28.31324468250763
H           44.90867888124383        2.35679547635169       55.27130454044917
C           49.73194574594378        4.19168596953749       48.42162782190170
H           17.38891135221278        1.99130418009604       47.15713532369555
H           63.56068655582891        1.54193323648204       41.81453253482981
H           65.80864936465647        1.31983017844176       48.86398987752619
C           51.79031683649126        2.15284302971282       63.76972786720089
N           47.82451754221879        2.98966008549147       49.36696355107508
C           49.33661413822215        1.79803514134933       42.19680771727415
O           19.89844272660454        2.52841471580114       36.94145385185799
H           18.51500582557619        1.84671324506257       30.99146086969156
C           37.02494334263945        2.22580038686141       22.89749147941713
H           44.67988340265356        2.89909190647861       39.33517937083973
C           36.86129840056702        1.84116983136543       66.36354697005848
H           23.09848132580762        3.62662447976191       30.78339792267627
H           25.81943248095818        2.17624436659594       52.83481436371756
C           22.67137253587268        3.21865275343220       58.66343588005573
H           43.10220451613420        0.51000575017737       53.89097407368383
H           51.62498041532842        2.65428816800703       23.65291154992682
C           37.35171309848212        1.64876181092896       33.97222541396985
C           14.53494914533102        3.40921421559492       46.00682820189627
H           49.21253450640115        3.48062457966756       43.58379608036277
H           36.10573817493189        3.38519504648756       63.44410227476835
C           30.15220152757183        2.00617462487426       44.49596458560617
C           42.33540348551665        1.92056895536723       61.31897626441837
H           49.76030348686864        1.32422754497284       23.41908330937445
C           21.37478543894366        3.32505139169583       31.99054615017410
C           43.46776645862624        0.30098861352368       48.72484331717190
C           60.90028590273659        2.92171225728665       38.04946731630655
C           14.05222307928292        3.15532993899822       41.08844439082707
C           44.54944498977940        1.41575338442603       52.83397214038914
C           58.08333971076208        3.37990460009190       54.84878678352350
H           45.53021394416690       -0.31534524143270       48.80019117707698
H           28.82484281831874       -1.48015865464585       50.47011495674155
C           42.45184395693793        2.10411659335056       20.14458078645163
H           35.68916804883676        2.65319589387512       26.55879340170325
C           42.34700104868835        2.20290260779685       63.70616700417341
H           36.04981370652424        2.26367566749027       31.73833563165942
O           43.02934627415828        2.01620730111822       62.54793818938499
H           55.37060866895423        3.23993490113990       32.84200376712649
N           47.20550821352160        3.81655145422454       39.10352235820410
C           53.63102388164268        2.17857471667490       32.14123275724851
H           43.08118363214571        2.76568390556210       66.96727252646538
H           42.75471714575288       -0.52000061737305       48.60159290541066
H           57.52995626378431        2.61082834837647       32.89370732764252
N           29.61641520041540        1.10042569153319       46.72112231743605
H           68.15541147244333        2.84214517504382       45.23546654779928
C           20.23905876660593        2.13091807695800       29.74882371338339
H           45.61093448796611       -0.07231169848049       43.01895027486099
H           53.26511442461991        2.97989545099139       34.10127692643838
H           58.46391757356457        2.44481958335731       52.38124442784181
H           57.95665679752482        3.11090079275938       47.95700075935143
H           53.65052566692619        2.47605545043673       19.16728864237269
C           18.52964451301876        3.20366408730513       49.02013148193296
C           36.51655641005809        1.64306560012962       29.05086767868464
C           43.84149038087321        1.66216983977520       57.73843921099085
H           28.11510878329275        2.33017523366128       67.55205294537676
C           53.17623331594889        2.16415776504034       63.64300314555009
H           43.21817503835152        0.60646509395267       17.36171187199594
C           60.20420680606988        2.67756439313709       51.15028949356947
C           19.29680726073815        2.71767538239113       35.73701216583883
H           37.86156990690902        2.73108461890212       27.78218506495860
C           32.24586275715516        2.34527443920248       64.75533984548080
H           35.82344145118613        0.89823435003817       26.42807807821263
H           23.55468995962817        2.86503440431957       40.46827739656872
H           42.06969492162300        2.40706975239738       40.57279200070798
H           60.94089279407581        1.96346628270668       55.93981779470653
C           23.75369821701256        2.84627765261578       25.86612574743592
C           36.39586797502608        1.82394749045402       26.50177530664434
C           63.63919230885156        2.67782460793621       49.69539058236600
C           15.87765376310725        2.79504240716296       37.23515504187175
N           51.17740952186332        4.16150143917700       48.27788850477300
C           59.19731700102367        2.27832741780426       57.14759785545172
C           68.07801589674467        2.84663595300273       43.09793738664207
C           29.47209828669637        2.40553238138236       65.20402165662379
C           17.20294694052560        2.97192019471741       37.01091775438033
H           42.64420377540733        0.58738500226618       56.30944861742464
C           38.84736933837621        0.81009900192637       37.22336173924766
C           50.86628790301351        2.04410018880856       45.28606929910939
H           39.55375112877724        2.84700471552123       37.39725204159892
C           29.60350416965237        0.80872288551016       45.29868466056310
C           23.70645479694683        1.97530826482442       63.26260500338794
C           28.55866087188779        2.04576923677361       48.71444853739312
O           59.66613212980922        1.75297586031422       58.31204766347057
N           14.17675204456958        2.10126213555943       35.45212347441480
C           21.80710003422836        3.40635856557235       57.52022936482967
H           23.39551529174376        1.48005928574679       54.41291365366407
N           43.83527426232642        0.74112859901157       47.39102354361103
H           61.99942529826969        1.63468833448442       39.93554951304169
H           35.51628499134397        0.52586733320389       37.58134528171748
H           29.41427810837999        2.80815202268445       44.45934975448477
C           28.01759049433008        2.46281424041941       65.41298037537672
C           48.66514380729377        3.80420635001868       39.07432079665448
H           29.35637546186259       -0.87524572407837       52.75489464429587
H           41.86761734430851        0.09256400562491       18.40093953780962
C           61.74547061191639        3.14239680057862       35.19804641821494
C           17.65514623608430        3.81680630657813       51.79586612035349
H           55.92225160737498        1.15329409865291       46.55072454861924
C           44.70812376294081       -0.18583208706168       49.50914702945009
H           29.63759467315302        0.00567964104493       20.26417077794538
C           55.08887817131960        2.46025136449798       59.82865029479154
C           58.20561938434200        2.28905147844557       49.92736900930601
O           23.55033220586137        2.61130894314528       56.13003057737131
H           23.64014175752670        1.35891462253293       37.81640173146653
H           64.65039701186355        4.27533543080632       37.86665583207687
C           28.32093073569061        2.04133341693624       42.14657947336682
C           57.49756788768354        3.02884761998252       29.51570160436011
H           53.51401373667132        0.97439916896389       45.36910974372002
C           52.06785626311300        2.61065710418289       22.66852884263757
C           21.30483613518776        2.37751782351117       36.96607061523834
C           25.95164330120668        1.44185383087476       20.79695769932791
H           21.03022952308263        2.46777403039154       34.50052007630624
N           48.52901838788498        1.81548131585004       44.59045149690101
N           27.39022270234501        2.67161869881083       49.31182645676977
N           25.33103530654419        2.29717867846841       30.24782821843734
H           19.40238059701032        4.53399312461944       50.79459632139827
C           25.52966440214524        1.96228284680196       24.49020228840722
C           55.14295056987173        2.35245057603775       32.23501330082211
H           55.73578165172347        2.82104261253458       49.09665186817314
C           36.16858865273525        2.29792611592118       21.77206600677096
H           63.99636411607202        4.27439264834261       45.36912887918559
C           36.05855990031093        2.37349613285930       65.32644928148001
H           51.17512251498216        2.24279375928184       62.88616383792379
H           17.53814956224233        3.16464676843770       55.13693752815100
H           42.71657503623108        2.29725685459884       37.57875210835451
H           21.70338751926139        2.33128240514489       27.57625286890728
H           38.02784013925650        2.59242965804591       30.25569051152248
O           36.19153478332754        1.30809540437393       67.42132754461014
H           25.67855295157054        2.45162465151660       67.86333992349327
C           45.08830252654538        2.51642892470278       23.47377707319700
C           62.62155008096826        3.08168316842432       36.34993594071288
H           37.83696002865049        2.91414638261430       25.32666905539324
C           16.80352457563197        3.75621232207972       50.63050892071577
C           14.27607568384161        4.24526568851808       47.09169181146700
C           45.08685772462987        1.53608980994134       66.98910424645072
H           53.40782993565729        1.28115105926446       31.56246092015873
C           16.51786854927871        2.63035560829467       47.13896513226449