38
 energy: -54.864154957693 gnorm: 0.000053854481 xtb: 6.7.1 (edcfbbe)
S            2.63404099960627       -7.32514200902483        2.30913128188064
C            3.46279731329996       -9.35665836922801        6.05600403291800
N            2.53760039404284       -9.82212914626121        5.55941448114059
C            3.84806087343530       -8.61754464459937        1.89548766403793
C            5.21980537785458       -8.02910764712487        1.60792166092076
H            3.47925857016013       -9.15965382478591        1.01834217842703
H            3.88834217437705       -9.31166742514001        2.74248728350222
H            5.94055024069761       -8.81971973256760        1.40286330772725
H            5.16163511596013       -7.36705406498224        0.74571503221433
H            5.56017883545524       -7.44156371249575        2.45955786288646
C           -1.13256154169649       -7.56856168615681        3.14237892069185
C           -0.99260977935396       -7.96162431679502        5.69770760383451
C           -0.61258028948302       -8.10601367584017        4.27358647049701
C            0.58749185749953       -8.81839329825775        2.55589235049960
N           -0.42228469494672       -8.07603621032609        2.07732732042121
N            0.41057216970521       -8.93805647760369        3.87908816695791
H           -1.94366935808392       -6.88626974334078        3.00813752946718
H           -1.46093979820996       -8.87498259252511        6.05971286267718
H           -0.49791159010193       -7.75964862546037        1.12476908021485
H           -1.68604440367509       -7.13637065668191        5.81819796302831
H           -0.10406124414564       -7.77815195428780        6.30117909085400
H            1.17563208251514       -9.48971946086722        1.96543003147194
H            1.07677752904555       -9.36927857932566        4.51723051368586
C            3.88619642379748       -6.51983269153688        9.27502407945446
C            3.63462353929539       -7.46947681400032        8.13285743765341
C            4.74105295095238       -8.95885333042222        6.54019242881760
C            5.84406860957979       -8.85026064519841        5.50559962304359
C            5.83739213177800      -10.00156120894974        6.45657149956984
N            4.74739316203902       -8.05209820979382        7.64736515997634
O            2.52511248546609       -7.71843396096276        7.67507937038501
H            4.41047164373508       -7.03050080364998       10.07786959657913
H            2.93530080324035       -6.14623154655229        9.64207546958534
H            4.48955804697922       -5.68366226342077        8.93112208382694
H            5.65333752538175       -7.80639437122845        8.01921067742951
H            5.57984846862127       -9.02280435244963        4.47358924406859
H            6.56285069729568       -8.05845697986988        5.64667848602011
H            5.57245952163373      -10.97806079661766        6.08242422389754
H            6.55612315623580      -10.01250417165497        7.26062792973651
