38
 energy: -54.895690405531 gnorm: 0.000042841654 xtb: 6.7.1 (edcfbbe)
S            4.91963299381994       -9.44394241212339        3.67968190721746
C            4.14318944826718       -8.87063498116226        5.19398834145751
N            2.97871670923848       -8.43548406370406        5.33589661283750
C            3.95551159728902       -8.60276189919899        2.36990596075604
C            4.89208861580852       -8.20826976489346        1.23991916253689
H            3.49754241651038       -7.72870037197310        2.83407966312938
H            3.17984579158618       -9.28991395915706        2.03197185963410
H            5.37056838808848       -9.08978967663088        0.82102320993028
H            4.33005367352861       -7.70551363976626        0.45666993439867
H            5.66301081551634       -7.53589193796830        1.60811774809804
C           -1.71964722319045       -7.68265454702292        3.36361612365728
C           -1.11017759229126       -8.86778631635790        5.56446223672478
C           -0.84427436218416       -8.30355448594936        4.21252629866068
C            0.25545740795453       -7.77824617773713        2.45567122288580
N           -1.00613758407018       -7.35229602293059        2.24463926911024
N            0.39059769306616       -8.35381915626201        3.62191839365929
H           -2.75970665200387       -7.45696462827973        3.46856520169230
H           -1.15985229605351       -9.95462421393789        5.51679987210430
H           -1.36031587319025       -6.87847759232154        1.42984104981089
H           -2.05203520596252       -8.48610687890556        5.94714900827465
H           -0.30099900505703       -8.59873136336719        6.23870594448503
H            1.04767446182244       -7.65458516686892        1.74468065489021
H            2.33720932737366       -8.40607660689287        4.54534931529276
C            3.61778908405431       -6.58319021896304        8.89580476004599
C            4.45394149623660       -7.04343532888768        7.72856862649866
C            5.02805641469980       -8.97920210809707        6.38003930666063
C            6.53016524374305       -8.91472137342045        6.24791453574137
C            5.87799975443836      -10.21285053663343        6.57700736007393
N            4.46469551263116       -8.38454672102459        7.55513663332138
O            5.10214865551428       -6.27898872651036        7.02539853625254
H            2.56723098570961       -6.72122474533559        8.65311149808341
H            3.80499184084162       -5.52959768250418        9.07931434785799
H            3.85555571402319       -7.16091411218089        9.78379547329676
H            3.77813089155158       -8.93141286610093        8.05409303584572
H            6.94279506245308       -8.77224233864069        5.26229100482910
H            7.04759291669302       -8.37977507580592        7.02817744215649
H            5.83139668683375      -10.96941615511365        5.80940996966186
H            5.95852619468434      -10.58932614738070        7.58379847842872
