38
 energy: -52.438317885508 gnorm: 0.000030602288 xtb: 6.7.1 (edcfbbe)
S            1.99400150868988       -6.82415627589536        0.99157823714041
C            2.96802527012896       -9.67861102093466        4.52546646729278
C            2.65847473518327       -9.28397731830638        3.43846108768191
C            3.37789092929760       -5.78382270219715        1.47864313384022
C            4.23878782847002       -5.40218941914102        0.28223699547562
H            2.97001376121929       -4.88413545231192        1.95960559948276
H            3.97272522995498       -6.33230154127094        2.22154302387307
H            3.63789403094562       -4.86511952069566       -0.45249183334509
H            5.06950106800360       -4.77039204038268        0.59599723955855
H            4.63475003192113       -6.30145044048443       -0.19034997073881
C           -0.42745368698937       -7.96607042045293        4.92695877569355
C           -0.89458306021143       -8.56212334701070        3.65669935546774
C           -1.85331469391313       -9.50535820236166        3.41243367727583
C           -0.98590921121770       -8.91857841267490        1.49477592394760
N           -0.38222908841268       -8.21574264522365        2.43961357991758
N           -1.88915216072847       -9.70760840597617        2.06330661397420
H           -0.87190912011764       -8.48144898995674        5.77088553485567
H            0.65771951813963       -8.03769987030713        4.98105550695284
H           -0.69502425208087       -6.91225639273122        4.97055365943587
H           -2.49089459346155      -10.02985993245058        4.09175364768029
H            0.39834263799182       -7.56937148409074        2.23284901273754
H           -2.49913611284496      -10.35498498962063        1.58187744176365
H           -0.75707446687821       -8.84108676465352        0.45152752628214
C            5.33568829330980       -7.32801998269888        7.36493212802741
C            4.93476746355932       -8.33393115396346        6.30613688346375
C            3.32895779440418      -10.17660391801406        5.84567812375318
C            4.30987179841668      -11.34735102907691        5.72164476829568
N            3.89117886769611       -9.10086713513024        6.66246907768033
O            5.51662289515142       -8.43070425167094        5.22976401926823
H            5.63184409905296       -7.84379979793957        8.27442061690584
H            6.17221205886286       -6.74108704340599        6.99711273664655
H            4.50245802251721       -6.66592080518303        7.58412638367761
H            3.49841521083826       -8.96764659786402        7.58083949249491
H            2.41798459405558      -10.51219587013407        6.35238523157664
H            3.86939250707678      -12.13530259475875        5.11807289236002
H            4.55427433485595      -11.73800042838144        6.70605719524356
H            5.22192215257854      -11.00464736849838        5.23732355544056
H            2.42170380451106       -8.88741643414437        2.49102665893011
