38
 energy: -52.486314124280 gnorm: 0.000050881836 xtb: 6.7.1 (edcfbbe)
S            4.38612360811666       -6.81778392844070        3.14233222857630
C            3.40821644355384       -8.26119220086205        3.44047921529569
C            2.16526373895919       -8.43082507322548        3.00628237048616
C            3.61842089225134       -6.07703198632725        1.64907031169084
C            3.81334926774571       -6.93121178916665        0.41175695375098
H            2.56884249741795       -5.87939583349415        1.85853387415374
H            4.14059181621420       -5.12562262728183        1.55333481219026
H            3.38713361391163       -6.42874767659949       -0.45318095935942
H            4.87317665803735       -7.09709466197310        0.23676955337080
H            3.32684054757755       -7.89586788030552        0.53465458361828
C           -1.33689021929722       -8.01899624607404        5.12168868395080
C           -1.30461216012746       -8.15186179317154        3.63994054796778
C           -1.34481393739778       -9.28960732450675        2.88043813893721
C           -1.20786759656858       -7.53606461440459        1.59803859522533
N           -1.22094137271003       -7.06291511285299        2.81555085514669
N           -1.28428411474283       -8.88339723693182        1.57548595136464
H           -1.31592907186496       -9.00180493924841        5.58377083404578
H           -0.48143629639198       -7.43836177004331        5.46047598504350
H           -2.23909973260547       -7.49598603216755        5.43339199362441
H           -1.41240533770289      -10.32067172322276        3.15757332486675
H            1.62577645573147       -9.33590579704260        3.22598430049397
H           -1.28892439138209       -9.47979415751464        0.76434458211667
H           -1.14634973376629       -6.93138430033071        0.71569451137303
C            4.36944544354441       -7.79871680884409        7.76063406042022
C            4.67395968571069       -7.94661003107056        6.28616608670235
C            4.08474836186653       -9.32382467464626        4.28659817944381
C            5.51579910315434       -9.61054549871722        3.83670167776573
N            4.02958383547661       -8.97264018911856        5.70410438169656
O            5.44568379010756       -7.20019686537221        5.69415105886890
H            4.58682749947198       -8.72537463812410        8.28401030162240
H            4.97977126777836       -6.99915788028152        8.16948514353550
H            3.31985136695456       -7.55079973371785        7.89531051159397
H            3.37419246662959       -9.48739451709769        6.27024022562294
H            3.49458977922261      -10.23956504276228        4.18443009715616
H            5.52070362788421       -9.86309723493814        2.78036705044067
H            5.92343615001752      -10.44062136196856        4.40719434891122
H            6.13879455822569       -8.73429873966164        3.99340468753587
H            1.62786148897959       -7.68960207846605        2.44414094073787
