35
 energy: -49.326092208115 gnorm: 0.000048011355 xtb: 6.7.1 (edcfbbe)
S            2.55191444839231       -6.98658800320718        3.31013682629211
C            2.67391462584348       -8.74481522281361        3.22381743680542
C            2.55262813870150       -9.47433389271445        2.12366188930335
C            2.16028249675344       -6.44840980820021        1.61277668967856
C            3.38671971651627       -6.36078430012078        0.72080979542801
H            1.39960768119620       -7.12482068414792        1.22674991177424
H            1.71328914431160       -5.46485988257197        1.75368867220519
H            4.10107108829892       -5.65397317296109        1.13611238106650
H            3.87751699226157       -7.32741022980156        0.63280098660726
H            3.09426933479575       -6.02298382249687       -0.27056798327754
C           -0.84148400248786       -8.42209348098059        5.70651935735635
C           -0.76605319041062       -9.08730712292216        4.37698237863381
C           -0.55908064655547      -10.40968275999595        4.08969919508919
C           -0.79942806360501       -9.27008531672696        2.25078113492839
N           -0.91615110929321       -8.39133173627310        3.20908487359664
N           -0.58707605987446      -10.51512064033008        2.72619900554930
H           -1.87665675619300       -8.19258740908817        5.95429629128541
H           -0.28990647500294       -7.48550129689126        5.67786413659255
H           -0.43132867176594       -9.07113408242442        6.47509392039709
H            2.64462647593148      -10.54507541694579        2.18081366970785
H           -0.40677130891445      -11.25615201659015        4.72631099853715
H           -0.87203302123343       -9.04143007466019        1.20645839110967
H           -0.45741113925224      -11.35802354561475        2.19151092332611
C            4.76085897770258       -7.17911229905409        7.00481745784683
C            4.56573555589871       -8.29861797954415        6.01332506227688
C            2.90751119833967       -9.38557294499152        4.57586426831954
N            3.29375408986085       -8.45252229475523        5.60343357087252
O            5.47565459656101       -9.02944747986731        5.63290663719175
H            4.50838137769398       -6.23321396230119        6.53240029946590
H            4.11574256954807       -7.32717572347903        7.86588696544184
H            5.79780938476112       -7.15833684721866        7.32551799745834
H            2.60162448772321       -7.77820095230550        5.89274602021373
H            3.71337329456410      -10.12063566326399        4.49266114892381
H            1.98774450204682       -9.89247700677173        4.88492596163341
H            2.36491026690345       -9.06387292795791        1.14973372838188
