38
 energy: -52.278080258732 xtb: 6.7.1 (edcfbbe)
S            3.50749679392775       -6.57855749071593        3.04362817934852
C            3.16404892328975       -9.23097272878827        4.14900559106431
C            2.21098360649179       -8.97789811778389        3.42846792027431
C            4.21238125437161       -6.43505111565272        1.39529699433761
C            4.66165495866923       -7.47999407095668        0.41183482422797
H            3.52285165269740       -5.81247937404025        0.81094616295001
H            5.14420110616944       -5.93596628752255        1.67730579544983
H            4.41808386919314       -7.22170556546385       -0.60260845974475
H            5.73591899925092       -7.52346473640440        0.52657212107862
H            4.24959965284707       -8.43803800021291        0.54578826078234
C           -1.13890125174921       -7.47143596443069        5.00021425259693
C           -1.40786969510624       -8.23318102838250        3.74035776635172
C           -2.06591729480484       -9.36378996840604        3.33487965871623
C           -0.87211200975340       -8.57953003939376        1.66908988797784
N           -0.58663903703878       -7.80368187992630        2.71246858636884
N           -1.75525148839645       -9.51864467036892        2.00518655069315
H           -1.31089660975543       -8.04062819047764        5.90611501976763
H           -0.10179429363682       -7.12303655790544        4.93881034633811
H           -1.71952592698369       -6.55501531652418        5.01943600337602
H           -2.71065901991299      -10.06866930500878        3.81948043043211
H            0.62157943422350       -8.29234356571429        3.28758481334593
H           -2.09760427009894      -10.23494093040158        1.38557560098173
H           -0.52855953194258       -8.44308411054787        0.66871929738337
C            4.45351384692884       -7.00568683913749        7.85189214497304
C            4.70084130372791       -7.66306365983958        6.48924743051440
C            4.03573970029552       -9.80193723163055        5.23668254993668
C            5.46305729050029      -10.37296684033371        4.94464602292425
N            4.00026063953632       -8.80109745701152        6.33190183226200
O            5.46442178576390       -7.22411548203454        5.65044560218602
H            4.53480169106150       -7.72009937595151        8.66508015257429
H            5.14646814569889       -6.20650522198909        8.00137298919676
H            3.42706067479747       -6.63803433293739        7.86244546027580
H            3.32755674722754       -9.00322747189818        7.05271013488981
H            3.55623126942638      -10.71463639196833        5.60438509212503
H            5.40267212500727      -11.16653554292863        4.19496499696623
H            5.93227770573673      -10.84689366789463        5.81520123588141
H            6.13292255707454       -9.56900345435979        4.64563461138225
H            1.93821763841825       -8.65081720004693        2.44718248806144
