35
 energy: -49.144442627938 xtb: 6.7.1 (edcfbbe)
S            2.16847198818088       -7.05712185519292        2.72585159446762
C            2.84810893847438       -9.46224728355854        3.68315168916676
C            2.56084114557896       -9.82051228136636        2.49536299956565
C            2.90498410572015       -6.32947416632587        1.25317707541474
C            4.27022374672887       -6.67120282540876        0.60438344773148
H            2.09501573324517       -6.43756705549672        0.52319923050113
H            2.97198196703960       -5.29465799645744        1.62777403392323
H            5.03347723262499       -5.92624714360875        0.82298160042904
H            4.55059927367808       -7.66644627715385        0.96377669146062
H            4.18374879712327       -6.74057127780636       -0.47514390908071
C           -0.76540980457136       -7.62850962461644        4.97253518700310
C           -0.98174528189238       -8.84672290774124        4.18569892980023
C           -1.34667539178356      -10.15585844703305        4.35618065040315
C           -0.69182429847784       -9.85773178666252        2.30231053344141
N           -0.55736692037291       -8.68090634138046        2.89077080392388
N           -1.26845707528867      -10.74882753372373        3.13531398056339
H           -1.70315241321744       -7.06550103590508        4.96781806964274
H            0.03205898699662       -7.11330438544943        4.42058108612033
H           -0.41764365190166       -7.88508956527453        5.95968830217427
H            1.45447355731422       -9.75341211498347        2.62665589403225
H           -1.69547449052693      -10.80992731042884        5.12305498502149
H           -0.45507512156334      -10.11159310618479        1.28664351008099
H           -1.58639597866577      -11.69196416013837        2.99690974136487
C            5.39768914465562       -7.36333519357475        6.91472021655311
C            4.77605424692293       -8.60474462059054        6.29666263878636
C            2.85012796709269       -9.59538893976716        5.13507892752177
N            3.54691863498151       -8.47553424773809        5.76276315308984
O            5.30324251344868       -9.71593451722119        6.39189707149076
H            5.52186725968241       -6.56476938366709        6.18527305278376
H            4.77076744935677       -7.00920253323668        7.72480065267278
H            6.37175310928481       -7.65351374259347        7.31053148115593
H            3.20063508752303       -7.54346948249235        5.59674930159070
H            3.32115123622824      -10.51593686515970        5.49880970573984
H            1.83945220705204       -9.74926328467478        5.55795134635528
H            2.87334985780325       -9.81727205054817        1.45658657219988
