38
 energy: -54.818323755352 xtb: 6.7.1 (edcfbbe)
S            4.01821336417912       -7.52688389597029        3.60357787379306
C            3.78596791665595       -9.09549898484694        5.67784335959702
N            2.73599220040606       -9.41244839566788        5.30815555973180
C            3.88049090831537       -8.75307872849858        2.23682040630556
C            5.10396569530280       -8.41561430009467        1.41753987266506
H            2.92992058398556       -8.62724170134365        1.74763642064796
H            3.87031676554524       -9.80107025450785        2.62065322688225
H            5.67122560629293       -9.27038947807672        1.06650253021626
H            4.84516176972970       -7.81369206547262        0.54935868164020
H            5.78853294737760       -7.88231757585914        2.06667316783176
C           -1.42166313783406       -7.48521467575021        3.41148909630392
C           -1.02861349298393       -8.50501936228244        5.69911487413052
C           -0.68854078094461       -8.20682195274346        4.30578206224117
C            0.42419923071384       -8.14064984031588        2.42348677359928
N           -0.70379366536283       -7.47337443481586        2.23668274663211
N            0.48569804539188       -8.54954872117229        3.68283009845860
H           -2.35115696740776       -6.98668285151546        3.60167297421514
H           -1.31833588816459       -9.54565913150586        5.84008158969737
H           -0.88815841752281       -6.92282382044815        1.40860103936305
H           -1.83258908588345       -7.86304405829949        6.04095798335691
H           -0.15261879141444       -8.33536073414640        6.32875190976798
H            1.13550750270855       -8.37496550531577        1.65688621463850
H            1.39127598473664       -8.69797656442702        4.14664404222623
C            3.67123714800840       -6.34805409453999        8.97710714480321
C            3.79963248644089       -7.05360650859876        7.63313312429538
C            4.92806816251316       -8.94039570996218        6.53663487340384
C            6.28405569663257       -8.92189535300910        5.87685682677501
C            5.88131502785375      -10.09675745177046        6.71401421079786
N            4.60453839609377       -8.13417055551998        7.68270695224938
O            3.24884851696930       -6.69474790526967        6.60007578384641
H            3.15827917683519       -6.98621741219683        9.67862561814469
H            2.99910035043626       -5.50370740615633        8.82557507394773
H            4.60186882315768       -6.10451150226984        9.44298457573838
H            4.95710794669179       -8.39762886820158        8.59046651435256
H            6.30711138667596       -9.02261914917331        4.80469334992983
H            7.02902280001606       -8.24214302463243        6.26193377600142
H            5.63857395341213      -11.03700229005861        6.24169228517327
H            6.32410282307785      -10.21844418062058        7.69565814859701
