35
 energy: -49.273014563632 gnorm: 0.000194436544 xtb: 6.7.1 (edcfbbe)
S            1.69384547351284       -7.36908207419643        1.04376957464805
C            3.24860586630770      -10.11842781922218        4.31932769879703
C            2.69153665492351       -9.89324332591249        3.28333115261074
C            2.83239848021903       -5.98507626335736        1.18088348618217
C            4.17839126526542       -6.28350208987505        0.53520231392843
H            2.35960908509114       -5.11788379413153        0.69686880171877
H            2.96269353628375       -5.75437409024835        2.24548385288282
H            4.84019870806587       -5.42140429286568        0.61591132404160
H            4.64339350645048       -7.13822212667489        1.02662892327481
H            4.03968996036467       -6.52834958976850       -0.51837807912384
C           -0.17811660971825       -8.73943943791977        5.23142105882581
C           -0.94435964337422       -9.05044990356238        4.00493336341193
C           -2.08480447427286       -9.78326306443589        3.82903230881119
C           -1.44695247491898       -9.05536846018179        1.87021026584303
N           -0.58040318292726       -8.60819724809997        2.76506586905869
N           -2.37416261117772       -9.77011056838528        2.49550258228831
H           -0.24546965111526       -7.67725032200164        5.45784472689736
H            0.87017689534099       -8.98517433104366        5.06882994784607
H           -0.56406813677461       -9.30839818048046        6.06978060649743
H            0.25470721020461       -8.06126325642319        2.49310478582843
H           -2.68804941761645      -10.29874907909541        4.54565531117868
H           -1.37926256921039       -8.85884120381481        0.81973526513817
H           -3.16056085539464      -10.23354219248619        2.06002470176400
C            5.18922041573311       -7.00299029688478        6.90149811110581
C            5.26396543446172       -8.38338391886801        6.29219907529853
C            3.90455523827390      -10.31278967229158        5.60229882253257
N            4.09336814347207       -9.04073285119003        6.28029574301960
O            6.30808484222465       -8.87301102909704        5.86922178507240
H            4.62689053203951       -6.34909691339743        6.23874652064972
H            4.69637608645665       -7.03881240680353        7.86853670067092
H            6.19400250968812       -6.60755001309478        7.01693842168284
H            3.25914702695321       -8.54610570606636        6.55910868973638
H            4.89677668680802      -10.74635466958157        5.44401237348468
H            3.30919011053698      -10.97601051638584        6.23575721472614
H            2.24527595780859       -9.64814929217633        2.36172669966949
