50
 energy: -65.288318791562 gnorm: 0.000051108761 xtb: 6.7.1 (edcfbbe)
H           42.63505487476829        2.61239433152487       46.35503164201502
C           47.60741702367410       -1.17589450292844       43.35006899101551
H           47.78213247365763        2.30757008066972       40.89980064443832
N           44.38139632379139        1.11408298199480       40.38539560158280
H           45.31309142234568        1.85731692703595       45.33207617877287
H           45.16573957944578        4.20741743364208       45.70962396985360
H           45.15284970997102        1.41883922532504       39.78956792402618
N           48.79898652241830        2.32187055946322       40.85797591919425
C           49.31944692023760        1.59350620157667       41.99919717619910
H           45.32026991441252        2.43134303867475       43.00952144152638
C           43.60501620867253        1.77469974427900       48.62621349081162
N           47.33555030491047        4.36076897524362       39.35388601259313
H           42.84108713839838        1.11009881800902       48.22213424973221
H           45.85318373986380       -1.03593954159093       42.32779033084627
N           44.32235213512021        2.38035165557888       47.52163764754605
C           48.79306211668023        4.33503381135688       39.45703558143220
C           43.33263697523140        0.32639464577473       39.78738052709867
H           43.12026142399719        4.11858700167007       47.16644509825326
H           43.11298965695088        2.50655494829413       49.28458815570868
C           49.23443260579545        3.70302278666443       40.77756979780401
N           44.79436691997574        2.44360808745273       44.68355908611326
H           49.17092744464671        3.73466147651326       38.62603769785926
C           43.49797321154980        3.21208712146236       46.66189649343276
N           46.84694703133449       -0.97019477433937       42.13095444439675
C           44.30232022448968        3.60130526609139       45.41466373097468
H           49.23952070546109        5.33908114036600       39.39089674493000
H           45.09805820907506        2.93216400289434       47.87930666789379
H           43.67566470407341        4.19503677952287       44.74522690280354
H           47.04571196637361        4.91726347824236       38.55745231170407
H           46.92608595687406        4.76781776686782       40.18871091227089
H           47.00870585494410       -0.03816376664909       41.76383482094263
H           46.80174583413297        2.72692740457796       38.91589067294333
H           48.86036826755085        4.31858649796093       41.61686390948108
H           50.32800653557281        3.71509516975808       40.81830515531126
O           45.40690429088711        2.22777638867392       42.03398558656117
C           44.36121419858578        1.45057865815377       41.68038802588137
O           43.51745678478793        1.09606223383615       42.48270240575302
O           46.56611096735117        1.80074114826773       38.69801466539493
H           44.00255008994222        1.88681917046587       44.35564742219364
H           47.34417664526187        1.27805158492270       38.90655585854719
H           47.46116500456372       -0.39894864187592       44.11429022263889
H           42.59860634567743        0.09726694713449       40.55842428467091
H           44.30328135448094        1.18485587127821       49.21717069784344
H           48.93367723110527        1.94807467042304       42.96535333698600
H           43.73916861273031       -0.60299235198676       39.38466985368846
H           42.85308700946087        0.88333523961097       38.98061347718115
H           49.07330898912335        0.54421724419442       41.87361560606904
H           50.40650300635354        1.68963141117723       42.01055783851680
H           47.31918434433856       -2.13472651547066       43.78040385862639
H           48.66894462158179       -1.22370136224117       43.10666778480977
