50
 energy: -65.154687659570 xtb: 6.7.1 (edcfbbe)
H           42.02009896202152        2.19131966180283       45.96037386278564
C           46.03267827904823       -1.67170161977305       42.94817253348043
H           47.90509762702596        2.81760093434190       41.09614723915422
N           44.66400004205753        2.22443117952173       40.27082839642328
H           43.98463246118516        0.22051200129668       45.01570064338813
H           45.12817331467291        2.26672460836321       45.73140746881062
H           44.78528797719000        2.91583696133140       39.53127574349510
N           48.89584530880324        2.83760456198472       40.85477881554920
C           49.71801940196999        2.14768568938832       41.80251905632596
H           45.69509194219770        2.23543929854090       41.53703063515092
C           42.03245243653745        1.43952852023444       48.21268023149740
N           47.54861193326681        5.04938735021231       39.67785655385878
H           41.06961130845635        1.51542969271328       47.70232079268337
H           45.00169079441290       -0.05718520815613       42.12607624887647
N           43.07555619965888        1.19682229073513       47.23515559913932
C           48.99617440890560        5.03201415799237       39.82698345507546
C           43.94070755675789        1.02174201572494       39.90464692938836
H           43.20117907115669        3.27625830755656       46.80741441566560
H           42.17759784094835        2.37974941609001       48.76907278286871
C           49.39936608432836        4.17011894608477       41.01296999574550
N           43.97190406972401        1.01633004893577       44.38430261920163
H           49.38850670145330        4.59492785915333       38.88636375636337
C           43.06216876421609        2.29648103262287       46.29315958488551
N           45.94979010294883       -0.42063130889371       42.12994605131669
C           44.14820147343084        2.24072134893448       45.21279216989496
H           49.44835057008323        6.02330357831923       39.95720896349427
H           43.97753642338238        1.08639240210054       47.68005024481785
H           44.20263321791666        3.07429944383573       44.52924553567426
H           47.24895902021537        5.75093862760127       39.00323367083227
H           47.09564020968029        5.16203152473296       40.57731694209069
H           46.52714744285262        0.34825039315155       42.48023760046490
H           47.17199789836572        3.45453019196057       38.77416242297768
H           49.13015435454963        4.56708069710788       42.00670041597511
H           50.49100844158046        4.06872563827997       40.97634679574288
O           45.54832747036406        3.19375840920021       42.01826225902081
C           44.33979015220222        2.86768393998546       41.56665989899656
O           43.28408834478371        2.79484702136603       42.10142698403337
O           47.01085008256652        2.51756849548470       38.56003579823312
H           42.99796971290844        0.91313734817454       44.03727815339033
H           47.74998124678145        2.06817444978218       38.97331383844518
H           46.10898516975285       -1.73648826603710       44.04503395199532
H           43.08366536765971        1.02723659473225       40.58083551106357
H           41.97529553730634        0.59937060212275       48.89525604611063
H           49.62340796115001        2.63811570996312       42.79247004360982
H           44.54715394133920        0.13142268589645       40.02803513016210
H           43.73010010709501        0.96616644644140       38.82260001682173
H           49.43505639391247        1.11803706295291       41.84214451126753
H           50.74589050993573        2.22016342389763       41.43910595073476
H           45.16263388138026       -2.29522883189544       42.71275805524893
H           46.83920580522295       -2.21722242527257       42.44806743364187
